   9   9   0   0
  0.1394991E+02  0.8724042E-09  0.8724042E-09  0.3828023E-09  0.5000000E-15
   1.0000000000000000E-004
  CAR 
 unknown system                          
     40.36713958    -74.82830112 2000      5.10690433      1.00000000
    -74.828  0.0000E+00  0.0000E+00
    -74.771  0.0000E+00  0.0000E+00
    -74.713  0.0000E+00  0.0000E+00
    -74.655  0.0000E+00  0.0000E+00
    -74.598  0.0000E+00  0.0000E+00
    -74.540  0.0000E+00  0.0000E+00
    -74.483  0.0000E+00  0.0000E+00
    -74.425  0.0000E+00  0.0000E+00
    -74.367  0.0000E+00  0.0000E+00
    -74.310  0.0000E+00  0.0000E+00
    -74.252  0.0000E+00  0.0000E+00
    -74.194  0.0000E+00  0.0000E+00
    -74.137  0.0000E+00  0.0000E+00
    -74.079  0.0000E+00  0.0000E+00
    -74.022  0.0000E+00  0.0000E+00
    -73.964  0.0000E+00  0.0000E+00
    -73.906  0.0000E+00  0.0000E+00
    -73.849  0.0000E+00  0.0000E+00
    -73.791  0.0000E+00  0.0000E+00
    -73.733  0.0000E+00  0.0000E+00
    -73.676  0.0000E+00  0.0000E+00
    -73.618  0.0000E+00  0.0000E+00
    -73.561  0.0000E+00  0.0000E+00
    -73.503  0.0000E+00  0.0000E+00
    -73.445  0.0000E+00  0.0000E+00
    -73.388  0.0000E+00  0.0000E+00
    -73.330  0.0000E+00  0.0000E+00
    -73.272  0.0000E+00  0.0000E+00
    -73.215  0.0000E+00  0.0000E+00
    -73.157  0.0000E+00  0.0000E+00
    -73.100  0.0000E+00  0.0000E+00
    -73.042  0.0000E+00  0.0000E+00
    -72.984  0.0000E+00  0.0000E+00
    -72.927  0.0000E+00  0.0000E+00
    -72.869  0.0000E+00  0.0000E+00
    -72.811  0.0000E+00  0.0000E+00
    -72.754  0.0000E+00  0.0000E+00
    -72.696  0.0000E+00  0.0000E+00
    -72.638  0.0000E+00  0.0000E+00
    -72.581  0.0000E+00  0.0000E+00
    -72.523  0.0000E+00  0.0000E+00
    -72.466  0.0000E+00  0.0000E+00
    -72.408  0.0000E+00  0.0000E+00
    -72.350  0.0000E+00  0.0000E+00
    -72.293  0.0000E+00  0.0000E+00
    -72.235  0.0000E+00  0.0000E+00
    -72.177  0.0000E+00  0.0000E+00
    -72.120  0.0000E+00  0.0000E+00
    -72.062  0.0000E+00  0.0000E+00
    -72.005  0.0000E+00  0.0000E+00
    -71.947  0.0000E+00  0.0000E+00
    -71.889  0.0000E+00  0.0000E+00
    -71.832  0.0000E+00  0.0000E+00
    -71.774  0.0000E+00  0.0000E+00
    -71.716  0.0000E+00  0.0000E+00
    -71.659  0.0000E+00  0.0000E+00
    -71.601  0.0000E+00  0.0000E+00
    -71.544  0.0000E+00  0.0000E+00
    -71.486  0.0000E+00  0.0000E+00
    -71.428  0.0000E+00  0.0000E+00
    -71.371  0.0000E+00  0.0000E+00
    -71.313  0.0000E+00  0.0000E+00
    -71.255  0.0000E+00  0.0000E+00
    -71.198  0.0000E+00  0.0000E+00
    -71.140  0.0000E+00  0.0000E+00
    -71.083  0.0000E+00  0.0000E+00
    -71.025  0.0000E+00  0.0000E+00
    -70.967  0.0000E+00  0.0000E+00
    -70.910  0.0000E+00  0.0000E+00
    -70.852  0.0000E+00  0.0000E+00
    -70.794  0.0000E+00  0.0000E+00
    -70.737  0.0000E+00  0.0000E+00
    -70.679  0.0000E+00  0.0000E+00
    -70.622  0.0000E+00  0.0000E+00
    -70.564  0.0000E+00  0.0000E+00
    -70.506  0.0000E+00  0.0000E+00
    -70.449  0.0000E+00  0.0000E+00
    -70.391  0.0000E+00  0.0000E+00
    -70.333  0.0000E+00  0.0000E+00
    -70.276  0.0000E+00  0.0000E+00
    -70.218  0.0000E+00  0.0000E+00
    -70.161  0.0000E+00  0.0000E+00
    -70.103  0.0000E+00  0.0000E+00
    -70.045  0.0000E+00  0.0000E+00
    -69.988  0.0000E+00  0.0000E+00
    -69.930  0.0000E+00  0.0000E+00
    -69.872  0.0000E+00  0.0000E+00
    -69.815  0.0000E+00  0.0000E+00
    -69.757  0.0000E+00  0.0000E+00
    -69.700  0.0000E+00  0.0000E+00
    -69.642  0.2116E-10  0.1219E-11
    -69.584  0.2954E+02  0.1702E+01
    -69.527  0.5164E+01  0.2000E+01
    -69.469  0.0000E+00  0.2000E+01
    -69.411  0.0000E+00  0.2000E+01
    -69.354  0.0000E+00  0.2000E+01
    -69.296  0.0000E+00  0.2000E+01
    -69.239  0.0000E+00  0.2000E+01
    -69.181  0.0000E+00  0.2000E+01
    -69.123  0.0000E+00  0.2000E+01
    -69.066  0.0000E+00  0.2000E+01
    -69.008  0.0000E+00  0.2000E+01
    -68.950  0.0000E+00  0.2000E+01
    -68.893  0.0000E+00  0.2000E+01
    -68.835  0.0000E+00  0.2000E+01
    -68.778  0.0000E+00  0.2000E+01
    -68.720  0.0000E+00  0.2000E+01
    -68.662  0.0000E+00  0.2000E+01
    -68.605  0.0000E+00  0.2000E+01
    -68.547  0.0000E+00  0.2000E+01
    -68.489  0.0000E+00  0.2000E+01
    -68.432  0.0000E+00  0.2000E+01
    -68.374  0.0000E+00  0.2000E+01
    -68.317  0.0000E+00  0.2000E+01
    -68.259  0.0000E+00  0.2000E+01
    -68.201  0.0000E+00  0.2000E+01
    -68.144  0.0000E+00  0.2000E+01
    -68.086  0.0000E+00  0.2000E+01
    -68.028  0.0000E+00  0.2000E+01
    -67.971  0.0000E+00  0.2000E+01
    -67.913  0.0000E+00  0.2000E+01
    -67.855  0.0000E+00  0.2000E+01
    -67.798  0.0000E+00  0.2000E+01
    -67.740  0.0000E+00  0.2000E+01
    -67.683  0.0000E+00  0.2000E+01
    -67.625  0.0000E+00  0.2000E+01
    -67.567  0.0000E+00  0.2000E+01
    -67.510  0.0000E+00  0.2000E+01
    -67.452  0.0000E+00  0.2000E+01
    -67.394  0.0000E+00  0.2000E+01
    -67.337  0.0000E+00  0.2000E+01
    -67.279  0.0000E+00  0.2000E+01
    -67.222  0.0000E+00  0.2000E+01
    -67.164  0.0000E+00  0.2000E+01
    -67.106  0.0000E+00  0.2000E+01
    -67.049  0.0000E+00  0.2000E+01
    -66.991  0.0000E+00  0.2000E+01
    -66.933  0.0000E+00  0.2000E+01
    -66.876  0.0000E+00  0.2000E+01
    -66.818  0.0000E+00  0.2000E+01
    -66.761  0.0000E+00  0.2000E+01
    -66.703  0.0000E+00  0.2000E+01
    -66.645  0.0000E+00  0.2000E+01
    -66.588  0.0000E+00  0.2000E+01
    -66.530  0.0000E+00  0.2000E+01
    -66.472  0.0000E+00  0.2000E+01
    -66.415  0.0000E+00  0.2000E+01
    -66.357  0.0000E+00  0.2000E+01
    -66.300  0.0000E+00  0.2000E+01
    -66.242  0.0000E+00  0.2000E+01
    -66.184  0.0000E+00  0.2000E+01
    -66.127  0.0000E+00  0.2000E+01
    -66.069  0.0000E+00  0.2000E+01
    -66.011  0.0000E+00  0.2000E+01
    -65.954  0.0000E+00  0.2000E+01
    -65.896  0.0000E+00  0.2000E+01
    -65.839  0.0000E+00  0.2000E+01
    -65.781  0.0000E+00  0.2000E+01
    -65.723  0.0000E+00  0.2000E+01
    -65.666  0.0000E+00  0.2000E+01
    -65.608  0.0000E+00  0.2000E+01
    -65.550  0.0000E+00  0.2000E+01
    -65.493  0.0000E+00  0.2000E+01
    -65.435  0.0000E+00  0.2000E+01
    -65.378  0.0000E+00  0.2000E+01
    -65.320  0.0000E+00  0.2000E+01
    -65.262  0.0000E+00  0.2000E+01
    -65.205  0.0000E+00  0.2000E+01
    -65.147  0.0000E+00  0.2000E+01
    -65.089  0.0000E+00  0.2000E+01
    -65.032  0.0000E+00  0.2000E+01
    -64.974  0.0000E+00  0.2000E+01
    -64.917  0.0000E+00  0.2000E+01
    -64.859  0.0000E+00  0.2000E+01
    -64.801  0.0000E+00  0.2000E+01
    -64.744  0.0000E+00  0.2000E+01
    -64.686  0.0000E+00  0.2000E+01
    -64.628  0.0000E+00  0.2000E+01
    -64.571  0.0000E+00  0.2000E+01
    -64.513  0.0000E+00  0.2000E+01
    -64.456  0.0000E+00  0.2000E+01
    -64.398  0.0000E+00  0.2000E+01
    -64.340  0.0000E+00  0.2000E+01
    -64.283  0.0000E+00  0.2000E+01
    -64.225  0.0000E+00  0.2000E+01
    -64.167  0.0000E+00  0.2000E+01
    -64.110  0.0000E+00  0.2000E+01
    -64.052  0.0000E+00  0.2000E+01
    -63.995  0.0000E+00  0.2000E+01
    -63.937  0.0000E+00  0.2000E+01
    -63.879  0.0000E+00  0.2000E+01
    -63.822  0.0000E+00  0.2000E+01
    -63.764  0.0000E+00  0.2000E+01
    -63.706  0.0000E+00  0.2000E+01
    -63.649  0.0000E+00  0.2000E+01
    -63.591  0.0000E+00  0.2000E+01
    -63.534  0.0000E+00  0.2000E+01
    -63.476  0.0000E+00  0.2000E+01
    -63.418  0.0000E+00  0.2000E+01
    -63.361  0.0000E+00  0.2000E+01
    -63.303  0.0000E+00  0.2000E+01
    -63.245  0.0000E+00  0.2000E+01
    -63.188  0.0000E+00  0.2000E+01
    -63.130  0.0000E+00  0.2000E+01
    -63.072  0.0000E+00  0.2000E+01
    -63.015  0.0000E+00  0.2000E+01
    -62.957  0.0000E+00  0.2000E+01
    -62.900  0.0000E+00  0.2000E+01
    -62.842  0.0000E+00  0.2000E+01
    -62.784  0.0000E+00  0.2000E+01
    -62.727  0.0000E+00  0.2000E+01
    -62.669  0.0000E+00  0.2000E+01
    -62.611  0.0000E+00  0.2000E+01
    -62.554  0.0000E+00  0.2000E+01
    -62.496  0.0000E+00  0.2000E+01
    -62.439  0.0000E+00  0.2000E+01
    -62.381  0.0000E+00  0.2000E+01
    -62.323  0.0000E+00  0.2000E+01
    -62.266  0.0000E+00  0.2000E+01
    -62.208  0.0000E+00  0.2000E+01
    -62.150  0.0000E+00  0.2000E+01
    -62.093  0.0000E+00  0.2000E+01
    -62.035  0.0000E+00  0.2000E+01
    -61.978  0.0000E+00  0.2000E+01
    -61.920  0.0000E+00  0.2000E+01
    -61.862  0.0000E+00  0.2000E+01
    -61.805  0.0000E+00  0.2000E+01
    -61.747  0.0000E+00  0.2000E+01
    -61.689  0.0000E+00  0.2000E+01
    -61.632  0.0000E+00  0.2000E+01
    -61.574  0.0000E+00  0.2000E+01
    -61.517  0.0000E+00  0.2000E+01
    -61.459  0.0000E+00  0.2000E+01
    -61.401  0.0000E+00  0.2000E+01
    -61.344  0.0000E+00  0.2000E+01
    -61.286  0.0000E+00  0.2000E+01
    -61.228  0.0000E+00  0.2000E+01
    -61.171  0.0000E+00  0.2000E+01
    -61.113  0.0000E+00  0.2000E+01
    -61.056  0.0000E+00  0.2000E+01
    -60.998  0.0000E+00  0.2000E+01
    -60.940  0.0000E+00  0.2000E+01
    -60.883  0.0000E+00  0.2000E+01
    -60.825  0.0000E+00  0.2000E+01
    -60.767  0.0000E+00  0.2000E+01
    -60.710  0.0000E+00  0.2000E+01
    -60.652  0.0000E+00  0.2000E+01
    -60.595  0.0000E+00  0.2000E+01
    -60.537  0.0000E+00  0.2000E+01
    -60.479  0.0000E+00  0.2000E+01
    -60.422  0.0000E+00  0.2000E+01
    -60.364  0.0000E+00  0.2000E+01
    -60.306  0.0000E+00  0.2000E+01
    -60.249  0.0000E+00  0.2000E+01
    -60.191  0.0000E+00  0.2000E+01
    -60.134  0.0000E+00  0.2000E+01
    -60.076  0.0000E+00  0.2000E+01
    -60.018  0.0000E+00  0.2000E+01
    -59.961  0.0000E+00  0.2000E+01
    -59.903  0.0000E+00  0.2000E+01
    -59.845  0.0000E+00  0.2000E+01
    -59.788  0.0000E+00  0.2000E+01
    -59.730  0.0000E+00  0.2000E+01
    -59.673  0.0000E+00  0.2000E+01
    -59.615  0.0000E+00  0.2000E+01
    -59.557  0.0000E+00  0.2000E+01
    -59.500  0.0000E+00  0.2000E+01
    -59.442  0.0000E+00  0.2000E+01
    -59.384  0.0000E+00  0.2000E+01
    -59.327  0.0000E+00  0.2000E+01
    -59.269  0.0000E+00  0.2000E+01
    -59.212  0.0000E+00  0.2000E+01
    -59.154  0.0000E+00  0.2000E+01
    -59.096  0.0000E+00  0.2000E+01
    -59.039  0.0000E+00  0.2000E+01
    -58.981  0.0000E+00  0.2000E+01
    -58.923  0.0000E+00  0.2000E+01
    -58.866  0.0000E+00  0.2000E+01
    -58.808  0.0000E+00  0.2000E+01
    -58.750  0.0000E+00  0.2000E+01
    -58.693  0.0000E+00  0.2000E+01
    -58.635  0.0000E+00  0.2000E+01
    -58.578  0.0000E+00  0.2000E+01
    -58.520  0.0000E+00  0.2000E+01
    -58.462  0.0000E+00  0.2000E+01
    -58.405  0.0000E+00  0.2000E+01
    -58.347  0.0000E+00  0.2000E+01
    -58.289  0.0000E+00  0.2000E+01
    -58.232  0.0000E+00  0.2000E+01
    -58.174  0.0000E+00  0.2000E+01
    -58.117  0.0000E+00  0.2000E+01
    -58.059  0.0000E+00  0.2000E+01
    -58.001  0.0000E+00  0.2000E+01
    -57.944  0.0000E+00  0.2000E+01
    -57.886  0.0000E+00  0.2000E+01
    -57.828  0.0000E+00  0.2000E+01
    -57.771  0.0000E+00  0.2000E+01
    -57.713  0.0000E+00  0.2000E+01
    -57.656  0.0000E+00  0.2000E+01
    -57.598  0.0000E+00  0.2000E+01
    -57.540  0.0000E+00  0.2000E+01
    -57.483  0.0000E+00  0.2000E+01
    -57.425  0.0000E+00  0.2000E+01
    -57.367  0.0000E+00  0.2000E+01
    -57.310  0.0000E+00  0.2000E+01
    -57.252  0.0000E+00  0.2000E+01
    -57.195  0.0000E+00  0.2000E+01
    -57.137  0.0000E+00  0.2000E+01
    -57.079  0.0000E+00  0.2000E+01
    -57.022  0.0000E+00  0.2000E+01
    -56.964  0.0000E+00  0.2000E+01
    -56.906  0.0000E+00  0.2000E+01
    -56.849  0.0000E+00  0.2000E+01
    -56.791  0.0000E+00  0.2000E+01
    -56.734  0.0000E+00  0.2000E+01
    -56.676  0.0000E+00  0.2000E+01
    -56.618  0.0000E+00  0.2000E+01
    -56.561  0.0000E+00  0.2000E+01
    -56.503  0.0000E+00  0.2000E+01
    -56.445  0.0000E+00  0.2000E+01
    -56.388  0.0000E+00  0.2000E+01
    -56.330  0.0000E+00  0.2000E+01
    -56.273  0.0000E+00  0.2000E+01
    -56.215  0.0000E+00  0.2000E+01
    -56.157  0.0000E+00  0.2000E+01
    -56.100  0.0000E+00  0.2000E+01
    -56.042  0.0000E+00  0.2000E+01
    -55.984  0.0000E+00  0.2000E+01
    -55.927  0.0000E+00  0.2000E+01
    -55.869  0.0000E+00  0.2000E+01
    -55.812  0.0000E+00  0.2000E+01
    -55.754  0.0000E+00  0.2000E+01
    -55.696  0.0000E+00  0.2000E+01
    -55.639  0.0000E+00  0.2000E+01
    -55.581  0.0000E+00  0.2000E+01
    -55.523  0.0000E+00  0.2000E+01
    -55.466  0.0000E+00  0.2000E+01
    -55.408  0.0000E+00  0.2000E+01
    -55.351  0.0000E+00  0.2000E+01
    -55.293  0.0000E+00  0.2000E+01
    -55.235  0.0000E+00  0.2000E+01
    -55.178  0.0000E+00  0.2000E+01
    -55.120  0.0000E+00  0.2000E+01
    -55.062  0.0000E+00  0.2000E+01
    -55.005  0.0000E+00  0.2000E+01
    -54.947  0.0000E+00  0.2000E+01
    -54.890  0.0000E+00  0.2000E+01
    -54.832  0.0000E+00  0.2000E+01
    -54.774  0.0000E+00  0.2000E+01
    -54.717  0.0000E+00  0.2000E+01
    -54.659  0.0000E+00  0.2000E+01
    -54.601  0.0000E+00  0.2000E+01
    -54.544  0.0000E+00  0.2000E+01
    -54.486  0.0000E+00  0.2000E+01
    -54.429  0.0000E+00  0.2000E+01
    -54.371  0.0000E+00  0.2000E+01
    -54.313  0.0000E+00  0.2000E+01
    -54.256  0.0000E+00  0.2000E+01
    -54.198  0.0000E+00  0.2000E+01
    -54.140  0.0000E+00  0.2000E+01
    -54.083  0.0000E+00  0.2000E+01
    -54.025  0.0000E+00  0.2000E+01
    -53.967  0.0000E+00  0.2000E+01
    -53.910  0.0000E+00  0.2000E+01
    -53.852  0.0000E+00  0.2000E+01
    -53.795  0.0000E+00  0.2000E+01
    -53.737  0.0000E+00  0.2000E+01
    -53.679  0.0000E+00  0.2000E+01
    -53.622  0.0000E+00  0.2000E+01
    -53.564  0.0000E+00  0.2000E+01
    -53.506  0.0000E+00  0.2000E+01
    -53.449  0.0000E+00  0.2000E+01
    -53.391  0.0000E+00  0.2000E+01
    -53.334  0.0000E+00  0.2000E+01
    -53.276  0.0000E+00  0.2000E+01
    -53.218  0.0000E+00  0.2000E+01
    -53.161  0.0000E+00  0.2000E+01
    -53.103  0.0000E+00  0.2000E+01
    -53.045  0.0000E+00  0.2000E+01
    -52.988  0.0000E+00  0.2000E+01
    -52.930  0.0000E+00  0.2000E+01
    -52.873  0.0000E+00  0.2000E+01
    -52.815  0.0000E+00  0.2000E+01
    -52.757  0.0000E+00  0.2000E+01
    -52.700  0.0000E+00  0.2000E+01
    -52.642  0.0000E+00  0.2000E+01
    -52.584  0.0000E+00  0.2000E+01
    -52.527  0.0000E+00  0.2000E+01
    -52.469  0.0000E+00  0.2000E+01
    -52.412  0.0000E+00  0.2000E+01
    -52.354  0.0000E+00  0.2000E+01
    -52.296  0.0000E+00  0.2000E+01
    -52.239  0.0000E+00  0.2000E+01
    -52.181  0.0000E+00  0.2000E+01
    -52.123  0.0000E+00  0.2000E+01
    -52.066  0.0000E+00  0.2000E+01
    -52.008  0.0000E+00  0.2000E+01
    -51.951  0.0000E+00  0.2000E+01
    -51.893  0.0000E+00  0.2000E+01
    -51.835  0.0000E+00  0.2000E+01
    -51.778  0.0000E+00  0.2000E+01
    -51.720  0.0000E+00  0.2000E+01
    -51.662  0.0000E+00  0.2000E+01
    -51.605  0.0000E+00  0.2000E+01
    -51.547  0.0000E+00  0.2000E+01
    -51.490  0.0000E+00  0.2000E+01
    -51.432  0.0000E+00  0.2000E+01
    -51.374  0.0000E+00  0.2000E+01
    -51.317  0.0000E+00  0.2000E+01
    -51.259  0.0000E+00  0.2000E+01
    -51.201  0.0000E+00  0.2000E+01
    -51.144  0.0000E+00  0.2000E+01
    -51.086  0.0000E+00  0.2000E+01
    -51.029  0.0000E+00  0.2000E+01
    -50.971  0.0000E+00  0.2000E+01
    -50.913  0.0000E+00  0.2000E+01
    -50.856  0.0000E+00  0.2000E+01
    -50.798  0.0000E+00  0.2000E+01
    -50.740  0.0000E+00  0.2000E+01
    -50.683  0.0000E+00  0.2000E+01
    -50.625  0.0000E+00  0.2000E+01
    -50.568  0.0000E+00  0.2000E+01
    -50.510  0.0000E+00  0.2000E+01
    -50.452  0.0000E+00  0.2000E+01
    -50.395  0.0000E+00  0.2000E+01
    -50.337  0.0000E+00  0.2000E+01
    -50.279  0.0000E+00  0.2000E+01
    -50.222  0.0000E+00  0.2000E+01
    -50.164  0.0000E+00  0.2000E+01
    -50.107  0.0000E+00  0.2000E+01
    -50.049  0.0000E+00  0.2000E+01
    -49.991  0.0000E+00  0.2000E+01
    -49.934  0.0000E+00  0.2000E+01
    -49.876  0.0000E+00  0.2000E+01
    -49.818  0.0000E+00  0.2000E+01
    -49.761  0.0000E+00  0.2000E+01
    -49.703  0.0000E+00  0.2000E+01
    -49.646  0.0000E+00  0.2000E+01
    -49.588  0.0000E+00  0.2000E+01
    -49.530  0.0000E+00  0.2000E+01
    -49.473  0.0000E+00  0.2000E+01
    -49.415  0.0000E+00  0.2000E+01
    -49.357  0.0000E+00  0.2000E+01
    -49.300  0.0000E+00  0.2000E+01
    -49.242  0.0000E+00  0.2000E+01
    -49.184  0.0000E+00  0.2000E+01
    -49.127  0.0000E+00  0.2000E+01
    -49.069  0.0000E+00  0.2000E+01
    -49.012  0.0000E+00  0.2000E+01
    -48.954  0.0000E+00  0.2000E+01
    -48.896  0.0000E+00  0.2000E+01
    -48.839  0.0000E+00  0.2000E+01
    -48.781  0.0000E+00  0.2000E+01
    -48.723  0.0000E+00  0.2000E+01
    -48.666  0.0000E+00  0.2000E+01
    -48.608  0.0000E+00  0.2000E+01
    -48.551  0.0000E+00  0.2000E+01
    -48.493  0.0000E+00  0.2000E+01
    -48.435  0.0000E+00  0.2000E+01
    -48.378  0.0000E+00  0.2000E+01
    -48.320  0.0000E+00  0.2000E+01
    -48.262  0.0000E+00  0.2000E+01
    -48.205  0.0000E+00  0.2000E+01
    -48.147  0.0000E+00  0.2000E+01
    -48.090  0.0000E+00  0.2000E+01
    -48.032  0.0000E+00  0.2000E+01
    -47.974  0.0000E+00  0.2000E+01
    -47.917  0.0000E+00  0.2000E+01
    -47.859  0.0000E+00  0.2000E+01
    -47.801  0.0000E+00  0.2000E+01
    -47.744  0.0000E+00  0.2000E+01
    -47.686  0.0000E+00  0.2000E+01
    -47.629  0.0000E+00  0.2000E+01
    -47.571  0.0000E+00  0.2000E+01
    -47.513  0.0000E+00  0.2000E+01
    -47.456  0.0000E+00  0.2000E+01
    -47.398  0.0000E+00  0.2000E+01
    -47.340  0.0000E+00  0.2000E+01
    -47.283  0.0000E+00  0.2000E+01
    -47.225  0.0000E+00  0.2000E+01
    -47.168  0.0000E+00  0.2000E+01
    -47.110  0.0000E+00  0.2000E+01
    -47.052  0.0000E+00  0.2000E+01
    -46.995  0.0000E+00  0.2000E+01
    -46.937  0.0000E+00  0.2000E+01
    -46.879  0.0000E+00  0.2000E+01
    -46.822  0.0000E+00  0.2000E+01
    -46.764  0.0000E+00  0.2000E+01
    -46.707  0.0000E+00  0.2000E+01
    -46.649  0.0000E+00  0.2000E+01
    -46.591  0.0000E+00  0.2000E+01
    -46.534  0.0000E+00  0.2000E+01
    -46.476  0.0000E+00  0.2000E+01
    -46.418  0.0000E+00  0.2000E+01
    -46.361  0.0000E+00  0.2000E+01
    -46.303  0.0000E+00  0.2000E+01
    -46.246  0.0000E+00  0.2000E+01
    -46.188  0.0000E+00  0.2000E+01
    -46.130  0.0000E+00  0.2000E+01
    -46.073  0.0000E+00  0.2000E+01
    -46.015  0.0000E+00  0.2000E+01
    -45.957  0.0000E+00  0.2000E+01
    -45.900  0.0000E+00  0.2000E+01
    -45.842  0.0000E+00  0.2000E+01
    -45.785  0.0000E+00  0.2000E+01
    -45.727  0.0000E+00  0.2000E+01
    -45.669  0.0000E+00  0.2000E+01
    -45.612  0.0000E+00  0.2000E+01
    -45.554  0.0000E+00  0.2000E+01
    -45.496  0.0000E+00  0.2000E+01
    -45.439  0.0000E+00  0.2000E+01
    -45.381  0.0000E+00  0.2000E+01
    -45.324  0.0000E+00  0.2000E+01
    -45.266  0.0000E+00  0.2000E+01
    -45.208  0.0000E+00  0.2000E+01
    -45.151  0.0000E+00  0.2000E+01
    -45.093  0.0000E+00  0.2000E+01
    -45.035  0.0000E+00  0.2000E+01
    -44.978  0.0000E+00  0.2000E+01
    -44.920  0.0000E+00  0.2000E+01
    -44.863  0.0000E+00  0.2000E+01
    -44.805  0.0000E+00  0.2000E+01
    -44.747  0.0000E+00  0.2000E+01
    -44.690  0.0000E+00  0.2000E+01
    -44.632  0.0000E+00  0.2000E+01
    -44.574  0.0000E+00  0.2000E+01
    -44.517  0.0000E+00  0.2000E+01
    -44.459  0.0000E+00  0.2000E+01
    -44.401  0.0000E+00  0.2000E+01
    -44.344  0.0000E+00  0.2000E+01
    -44.286  0.0000E+00  0.2000E+01
    -44.229  0.0000E+00  0.2000E+01
    -44.171  0.0000E+00  0.2000E+01
    -44.113  0.0000E+00  0.2000E+01
    -44.056  0.0000E+00  0.2000E+01
    -43.998  0.0000E+00  0.2000E+01
    -43.940  0.0000E+00  0.2000E+01
    -43.883  0.0000E+00  0.2000E+01
    -43.825  0.0000E+00  0.2000E+01
    -43.768  0.0000E+00  0.2000E+01
    -43.710  0.0000E+00  0.2000E+01
    -43.652  0.0000E+00  0.2000E+01
    -43.595  0.0000E+00  0.2000E+01
    -43.537  0.0000E+00  0.2000E+01
    -43.479  0.0000E+00  0.2000E+01
    -43.422  0.0000E+00  0.2000E+01
    -43.364  0.0000E+00  0.2000E+01
    -43.307  0.0000E+00  0.2000E+01
    -43.249  0.0000E+00  0.2000E+01
    -43.191  0.0000E+00  0.2000E+01
    -43.134  0.0000E+00  0.2000E+01
    -43.076  0.0000E+00  0.2000E+01
    -43.018  0.0000E+00  0.2000E+01
    -42.961  0.0000E+00  0.2000E+01
    -42.903  0.0000E+00  0.2000E+01
    -42.846  0.0000E+00  0.2000E+01
    -42.788  0.0000E+00  0.2000E+01
    -42.730  0.0000E+00  0.2000E+01
    -42.673  0.0000E+00  0.2000E+01
    -42.615  0.0000E+00  0.2000E+01
    -42.557  0.0000E+00  0.2000E+01
    -42.500  0.0000E+00  0.2000E+01
    -42.442  0.0000E+00  0.2000E+01
    -42.385  0.0000E+00  0.2000E+01
    -42.327  0.0000E+00  0.2000E+01
    -42.269  0.0000E+00  0.2000E+01
    -42.212  0.0000E+00  0.2000E+01
    -42.154  0.0000E+00  0.2000E+01
    -42.096  0.0000E+00  0.2000E+01
    -42.039  0.0000E+00  0.2000E+01
    -41.981  0.0000E+00  0.2000E+01
    -41.924  0.0000E+00  0.2000E+01
    -41.866  0.0000E+00  0.2000E+01
    -41.808  0.0000E+00  0.2000E+01
    -41.751  0.0000E+00  0.2000E+01
    -41.693  0.0000E+00  0.2000E+01
    -41.635  0.0000E+00  0.2000E+01
    -41.578  0.0000E+00  0.2000E+01
    -41.520  0.0000E+00  0.2000E+01
    -41.463  0.0000E+00  0.2000E+01
    -41.405  0.0000E+00  0.2000E+01
    -41.347  0.0000E+00  0.2000E+01
    -41.290  0.0000E+00  0.2000E+01
    -41.232  0.0000E+00  0.2000E+01
    -41.174  0.0000E+00  0.2000E+01
    -41.117  0.0000E+00  0.2000E+01
    -41.059  0.0000E+00  0.2000E+01
    -41.002  0.0000E+00  0.2000E+01
    -40.944  0.0000E+00  0.2000E+01
    -40.886  0.0000E+00  0.2000E+01
    -40.829  0.0000E+00  0.2000E+01
    -40.771  0.0000E+00  0.2000E+01
    -40.713  0.0000E+00  0.2000E+01
    -40.656  0.0000E+00  0.2000E+01
    -40.598  0.0000E+00  0.2000E+01
    -40.541  0.0000E+00  0.2000E+01
    -40.483  0.0000E+00  0.2000E+01
    -40.425  0.0000E+00  0.2000E+01
    -40.368  0.0000E+00  0.2000E+01
    -40.310  0.0000E+00  0.2000E+01
    -40.252  0.0000E+00  0.2000E+01
    -40.195  0.0000E+00  0.2000E+01
    -40.137  0.0000E+00  0.2000E+01
    -40.080  0.0000E+00  0.2000E+01
    -40.022  0.0000E+00  0.2000E+01
    -39.964  0.0000E+00  0.2000E+01
    -39.907  0.0000E+00  0.2000E+01
    -39.849  0.0000E+00  0.2000E+01
    -39.791  0.0000E+00  0.2000E+01
    -39.734  0.0000E+00  0.2000E+01
    -39.676  0.0000E+00  0.2000E+01
    -39.618  0.0000E+00  0.2000E+01
    -39.561  0.0000E+00  0.2000E+01
    -39.503  0.0000E+00  0.2000E+01
    -39.446  0.0000E+00  0.2000E+01
    -39.388  0.0000E+00  0.2000E+01
    -39.330  0.0000E+00  0.2000E+01
    -39.273  0.0000E+00  0.2000E+01
    -39.215  0.0000E+00  0.2000E+01
    -39.157  0.0000E+00  0.2000E+01
    -39.100  0.0000E+00  0.2000E+01
    -39.042  0.0000E+00  0.2000E+01
    -38.985  0.0000E+00  0.2000E+01
    -38.927  0.0000E+00  0.2000E+01
    -38.869  0.0000E+00  0.2000E+01
    -38.812  0.0000E+00  0.2000E+01
    -38.754  0.0000E+00  0.2000E+01
    -38.696  0.0000E+00  0.2000E+01
    -38.639  0.0000E+00  0.2000E+01
    -38.581  0.0000E+00  0.2000E+01
    -38.524  0.0000E+00  0.2000E+01
    -38.466  0.0000E+00  0.2000E+01
    -38.408  0.0000E+00  0.2000E+01
    -38.351  0.0000E+00  0.2000E+01
    -38.293  0.0000E+00  0.2000E+01
    -38.235  0.0000E+00  0.2000E+01
    -38.178  0.0000E+00  0.2000E+01
    -38.120  0.0000E+00  0.2000E+01
    -38.063  0.0000E+00  0.2000E+01
    -38.005  0.0000E+00  0.2000E+01
    -37.947  0.0000E+00  0.2000E+01
    -37.890  0.0000E+00  0.2000E+01
    -37.832  0.0000E+00  0.2000E+01
    -37.774  0.0000E+00  0.2000E+01
    -37.717  0.0000E+00  0.2000E+01
    -37.659  0.0000E+00  0.2000E+01
    -37.602  0.0000E+00  0.2000E+01
    -37.544  0.0000E+00  0.2000E+01
    -37.486  0.0000E+00  0.2000E+01
    -37.429  0.0000E+00  0.2000E+01
    -37.371  0.0000E+00  0.2000E+01
    -37.313  0.0000E+00  0.2000E+01
    -37.256  0.0000E+00  0.2000E+01
    -37.198  0.0000E+00  0.2000E+01
    -37.141  0.0000E+00  0.2000E+01
    -37.083  0.0000E+00  0.2000E+01
    -37.025  0.0000E+00  0.2000E+01
    -36.968  0.0000E+00  0.2000E+01
    -36.910  0.0000E+00  0.2000E+01
    -36.852  0.0000E+00  0.2000E+01
    -36.795  0.0000E+00  0.2000E+01
    -36.737  0.0000E+00  0.2000E+01
    -36.680  0.0000E+00  0.2000E+01
    -36.622  0.0000E+00  0.2000E+01
    -36.564  0.0000E+00  0.2000E+01
    -36.507  0.0000E+00  0.2000E+01
    -36.449  0.0000E+00  0.2000E+01
    -36.391  0.0000E+00  0.2000E+01
    -36.334  0.0000E+00  0.2000E+01
    -36.276  0.0000E+00  0.2000E+01
    -36.219  0.0000E+00  0.2000E+01
    -36.161  0.0000E+00  0.2000E+01
    -36.103  0.0000E+00  0.2000E+01
    -36.046  0.0000E+00  0.2000E+01
    -35.988  0.0000E+00  0.2000E+01
    -35.930  0.0000E+00  0.2000E+01
    -35.873  0.0000E+00  0.2000E+01
    -35.815  0.0000E+00  0.2000E+01
    -35.758  0.0000E+00  0.2000E+01
    -35.700  0.0000E+00  0.2000E+01
    -35.642  0.0000E+00  0.2000E+01
    -35.585  0.0000E+00  0.2000E+01
    -35.527  0.0000E+00  0.2000E+01
    -35.469  0.0000E+00  0.2000E+01
    -35.412  0.0000E+00  0.2000E+01
    -35.354  0.0000E+00  0.2000E+01
    -35.296  0.0000E+00  0.2000E+01
    -35.239  0.0000E+00  0.2000E+01
    -35.181  0.0000E+00  0.2000E+01
    -35.124  0.0000E+00  0.2000E+01
    -35.066  0.0000E+00  0.2000E+01
    -35.008  0.0000E+00  0.2000E+01
    -34.951  0.0000E+00  0.2000E+01
    -34.893  0.0000E+00  0.2000E+01
    -34.835  0.0000E+00  0.2000E+01
    -34.778  0.0000E+00  0.2000E+01
    -34.720  0.0000E+00  0.2000E+01
    -34.663  0.0000E+00  0.2000E+01
    -34.605  0.0000E+00  0.2000E+01
    -34.547  0.0000E+00  0.2000E+01
    -34.490  0.0000E+00  0.2000E+01
    -34.432  0.0000E+00  0.2000E+01
    -34.374  0.0000E+00  0.2000E+01
    -34.317  0.0000E+00  0.2000E+01
    -34.259  0.0000E+00  0.2000E+01
    -34.202  0.0000E+00  0.2000E+01
    -34.144  0.0000E+00  0.2000E+01
    -34.086  0.0000E+00  0.2000E+01
    -34.029  0.3702E-10  0.2000E+01
    -33.971  0.8662E+01  0.2499E+01
    -33.913  0.3258E+02  0.4377E+01
    -33.856  0.2816E+02  0.6000E+01
    -33.798  0.7504E-02  0.6000E+01
    -33.741  0.2707E-03  0.6000E+01
    -33.683  0.3470E+02  0.8000E+01
    -33.625  0.0000E+00  0.8000E+01
    -33.568  0.0000E+00  0.8000E+01
    -33.510  0.0000E+00  0.8000E+01
    -33.452  0.0000E+00  0.8000E+01
    -33.395  0.0000E+00  0.8000E+01
    -33.337  0.0000E+00  0.8000E+01
    -33.280  0.0000E+00  0.8000E+01
    -33.222  0.0000E+00  0.8000E+01
    -33.164  0.0000E+00  0.8000E+01
    -33.107  0.0000E+00  0.8000E+01
    -33.049  0.0000E+00  0.8000E+01
    -32.991  0.0000E+00  0.8000E+01
    -32.934  0.0000E+00  0.8000E+01
    -32.876  0.0000E+00  0.8000E+01
    -32.819  0.0000E+00  0.8000E+01
    -32.761  0.0000E+00  0.8000E+01
    -32.703  0.0000E+00  0.8000E+01
    -32.646  0.0000E+00  0.8000E+01
    -32.588  0.0000E+00  0.8000E+01
    -32.530  0.0000E+00  0.8000E+01
    -32.473  0.0000E+00  0.8000E+01
    -32.415  0.0000E+00  0.8000E+01
    -32.358  0.0000E+00  0.8000E+01
    -32.300  0.0000E+00  0.8000E+01
    -32.242  0.0000E+00  0.8000E+01
    -32.185  0.0000E+00  0.8000E+01
    -32.127  0.0000E+00  0.8000E+01
    -32.069  0.0000E+00  0.8000E+01
    -32.012  0.0000E+00  0.8000E+01
    -31.954  0.0000E+00  0.8000E+01
    -31.897  0.0000E+00  0.8000E+01
    -31.839  0.0000E+00  0.8000E+01
    -31.781  0.0000E+00  0.8000E+01
    -31.724  0.0000E+00  0.8000E+01
    -31.666  0.0000E+00  0.8000E+01
    -31.608  0.0000E+00  0.8000E+01
    -31.551  0.0000E+00  0.8000E+01
    -31.493  0.0000E+00  0.8000E+01
    -31.436  0.0000E+00  0.8000E+01
    -31.378  0.0000E+00  0.8000E+01
    -31.320  0.0000E+00  0.8000E+01
    -31.263  0.0000E+00  0.8000E+01
    -31.205  0.0000E+00  0.8000E+01
    -31.147  0.0000E+00  0.8000E+01
    -31.090  0.0000E+00  0.8000E+01
    -31.032  0.0000E+00  0.8000E+01
    -30.975  0.0000E+00  0.8000E+01
    -30.917  0.0000E+00  0.8000E+01
    -30.859  0.0000E+00  0.8000E+01
    -30.802  0.0000E+00  0.8000E+01
    -30.744  0.0000E+00  0.8000E+01
    -30.686  0.0000E+00  0.8000E+01
    -30.629  0.0000E+00  0.8000E+01
    -30.571  0.0000E+00  0.8000E+01
    -30.513  0.0000E+00  0.8000E+01
    -30.456  0.0000E+00  0.8000E+01
    -30.398  0.0000E+00  0.8000E+01
    -30.341  0.0000E+00  0.8000E+01
    -30.283  0.0000E+00  0.8000E+01
    -30.225  0.0000E+00  0.8000E+01
    -30.168  0.0000E+00  0.8000E+01
    -30.110  0.0000E+00  0.8000E+01
    -30.052  0.0000E+00  0.8000E+01
    -29.995  0.0000E+00  0.8000E+01
    -29.937  0.0000E+00  0.8000E+01
    -29.880  0.0000E+00  0.8000E+01
    -29.822  0.0000E+00  0.8000E+01
    -29.764  0.0000E+00  0.8000E+01
    -29.707  0.0000E+00  0.8000E+01
    -29.649  0.0000E+00  0.8000E+01
    -29.591  0.0000E+00  0.8000E+01
    -29.534  0.0000E+00  0.8000E+01
    -29.476  0.0000E+00  0.8000E+01
    -29.419  0.0000E+00  0.8000E+01
    -29.361  0.0000E+00  0.8000E+01
    -29.303  0.0000E+00  0.8000E+01
    -29.246  0.0000E+00  0.8000E+01
    -29.188  0.0000E+00  0.8000E+01
    -29.130  0.0000E+00  0.8000E+01
    -29.073  0.0000E+00  0.8000E+01
    -29.015  0.0000E+00  0.8000E+01
    -28.958  0.0000E+00  0.8000E+01
    -28.900  0.0000E+00  0.8000E+01
    -28.842  0.0000E+00  0.8000E+01
    -28.785  0.0000E+00  0.8000E+01
    -28.727  0.0000E+00  0.8000E+01
    -28.669  0.0000E+00  0.8000E+01
    -28.612  0.0000E+00  0.8000E+01
    -28.554  0.0000E+00  0.8000E+01
    -28.497  0.0000E+00  0.8000E+01
    -28.439  0.0000E+00  0.8000E+01
    -28.381  0.0000E+00  0.8000E+01
    -28.324  0.0000E+00  0.8000E+01
    -28.266  0.0000E+00  0.8000E+01
    -28.208  0.0000E+00  0.8000E+01
    -28.151  0.0000E+00  0.8000E+01
    -28.093  0.0000E+00  0.8000E+01
    -28.036  0.0000E+00  0.8000E+01
    -27.978  0.0000E+00  0.8000E+01
    -27.920  0.0000E+00  0.8000E+01
    -27.863  0.0000E+00  0.8000E+01
    -27.805  0.0000E+00  0.8000E+01
    -27.747  0.0000E+00  0.8000E+01
    -27.690  0.0000E+00  0.8000E+01
    -27.632  0.0000E+00  0.8000E+01
    -27.575  0.0000E+00  0.8000E+01
    -27.517  0.0000E+00  0.8000E+01
    -27.459  0.0000E+00  0.8000E+01
    -27.402  0.0000E+00  0.8000E+01
    -27.344  0.0000E+00  0.8000E+01
    -27.286  0.0000E+00  0.8000E+01