    9    9    1    1
  0.1394991E+02  0.8724042E-09  0.8724042E-09  0.3828023E-09  0.5000000E-15
   1.0000000000000000E-004
  CAR 
 unknown system                          
     80    826     96
 
  0.1262379E-14  0.1262379E-14  0.1262379E-14  0.3287311E-03
      1        -69.592145   1.000000
      2        -33.923456   1.000000
      3        -33.872846   1.000000
      4        -33.712306   1.000000
      5        -16.938591   1.000000
      6        -16.759114   1.000000
      7        -16.730529   1.000000
      8        -16.724975   1.000000
      9        -16.716279   1.000000
     10        -16.715831   1.000000
     11        -16.684591   1.000000
     12        -16.677137   1.000000
     13        -16.633491   1.000000
     14        -16.628379   1.000000
     15        -13.545648   1.000000
     16        -13.246120   1.000000
     17        -12.649201   1.000000
     18        -11.694398   1.000000
     19        -11.233239   1.000000
     20        -10.755930   1.000000
     21         -4.401150   1.000000
     22         -2.169205   1.000000
     23          0.658408   1.000000
     24          0.719790   1.000000
     25          1.292905   1.000000
     26          1.533362   1.000000
     27          1.749952   1.000000
     28          1.835615   1.000000
     29          2.098386   1.000000
     30          2.350457   1.000000
     31          2.574296   1.000000
     32          3.045557   1.000000
     33          3.113742   1.000000
     34          3.121482   1.000000
     35          3.453988   1.000000
     36          3.748501   1.000000
     37          3.756423   1.000000
     38          3.930324   1.000000
     39          4.109152   1.000000
     40          4.672362   1.000000
     41          7.047294   0.000000
     42          7.844059   0.000000
     43          7.998683   0.000000
     44          8.498492   0.000000
     45          8.949238   0.000000
     46         10.081478   0.000000
     47         10.650962   0.000000
     48         10.792683   0.000000
     49         11.711930   0.000000
     50         12.408849   0.000000
     51         12.708855   0.000000
     52         14.134576   0.000000
     53         16.336880   0.000000
     54         16.365742   0.000000
     55         16.611351   0.000000
     56         16.913542   0.000000
     57         18.499747   0.000000
     58         18.989927   0.000000
     59         19.627763   0.000000
     60         19.796349   0.000000
     61         20.588762   0.000000
     62         20.785354   0.000000
     63         20.904426   0.000000
     64         21.084284   0.000000
     65         21.707593   0.000000
     66         22.207392   0.000000
     67         22.363880   0.000000
     68         23.036871   0.000000
     69         23.908306   0.000000
     70         24.792164   0.000000
     71         24.954374   0.000000
     72         24.977857   0.000000
     73         25.320377   0.000000
     74         25.944781   0.000000
     75         26.619467   0.000000
     76         26.873528   0.000000
     77         27.161145   0.000000
     78         27.654943   0.000000
     79         27.723528   0.000000
     80         28.382492   0.000000
     81         29.107659   0.000000
     82         29.344867   0.000000
     83         29.942676   0.000000
     84         30.389129   0.000000
     85         30.573785   0.000000
     86         30.598430   0.000000
     87         30.836222   0.000000
     88         31.264444   0.000000
     89         31.798669   0.000000
     90         32.199136   0.000000
     91         32.787418   0.000000
     92         32.792120   0.000000
     93         33.160513   0.000000
     94         33.472036   0.000000
     95         33.926918   0.000000
     96         34.693399   0.000000
 
  0.7692308E-01  0.1256510E-14  0.1280771E-14  0.1314924E-02
      1        -69.592117   1.000000
      2        -33.924948   1.000000
      3        -33.873959   1.000000
      4        -33.712174   1.000000
      5        -16.937152   1.000000
      6        -16.758064   1.000000
      7        -16.729755   1.000000
      8        -16.725633   1.000000
      9        -16.718599   1.000000
     10        -16.714220   1.000000
     11        -16.687347   1.000000
     12        -16.677961   1.000000
     13        -16.633422   1.000000
     14        -16.628860   1.000000
     15        -13.515326   1.000000
     16        -13.217842   1.000000
     17        -12.617444   1.000000
     18        -11.694706   1.000000
     19        -11.229197   1.000000
     20        -10.779262   1.000000
     21         -4.411942   1.000000
     22         -2.232695   1.000000
     23          0.648756   1.000000
     24          0.749075   1.000000
     25          1.198479   1.000000
     26          1.481238   1.000000
     27          1.624986   1.000000
     28          1.664778   1.000000
     29          2.190723   1.000000
     30          2.353182   1.000000
     31          2.546790   1.000000
     32          2.980728   1.000000
     33          3.043129   1.000000
     34          3.258036   1.000000
     35          3.441245   1.000000
     36          3.736756   1.000000
     37          3.770707   1.000000
     38          3.899763   1.000000
     39          4.102664   1.000000
     40          4.683712   1.000000
     41          7.146831   0.000000
     42          7.983452   0.000000
     43          8.016536   0.000000
     44          8.526155   0.000000
     45          9.044613   0.000000
     46         10.059700   0.000000
     47         10.756243   0.000000
     48         10.879639   0.000000
     49         11.575825   0.000000
     50         12.459502   0.000000
     51         12.660249   0.000000
     52         14.237463   0.000000
     53         16.354800   0.000000
     54         16.448590   0.000000
     55         16.797202   0.000000
     56         16.944226   0.000000
     57         18.515311   0.000000
     58         19.008515   0.000000
     59         19.488738   0.000000
     60         19.928737   0.000000
     61         20.469649   0.000000
     62         20.561130   0.000000
     63         20.738928   0.000000
     64         21.495576   0.000000
     65         21.679206   0.000000
     66         22.334007   0.000000
     67         22.394521   0.000000
     68         22.976743   0.000000
     69         23.892565   0.000000
     70         24.666701   0.000000
     71         24.907792   0.000000
     72         25.038254   0.000000
     73         25.369300   0.000000
     74         25.966180   0.000000
     75         26.668106   0.000000
     76         26.921848   0.000000
     77         27.088413   0.000000
     78         27.716761   0.000000
     79         27.748559   0.000000
     80         28.442865   0.000000
     81         28.903031   0.000000
     82         29.311129   0.000000
     83         29.849457   0.000000
     84         30.222396   0.000000
     85         30.406960   0.000000
     86         30.509934   0.000000
     87         30.649392   0.000000
     88         31.369844   0.000000
     89         31.700623   0.000000
     90         32.164438   0.000000
     91         32.809789   0.000000
     92         32.881072   0.000000
     93         33.360139   0.000000
     94         33.450562   0.000000
     95         33.993442   0.000000
     96         34.724055   0.000000
 
  0.1538462E+00  0.1279202E-14  0.1268305E-14  0.1314924E-02
      1        -69.592053   1.000000
      2        -33.929495   1.000000
      3        -33.876673   1.000000
      4        -33.711814   1.000000
      5        -16.933050   1.000000
      6        -16.755069   1.000000
      7        -16.738147   1.000000
      8        -16.727830   1.000000
      9        -16.719494   1.000000
     10        -16.709097   1.000000
     11        -16.692065   1.000000
     12        -16.678471   1.000000
     13        -16.633263   1.000000
     14        -16.630167   1.000000
     15        -13.435550   1.000000
     16        -13.138788   1.000000
     17        -12.517960   1.000000
     18        -11.696497   1.000000
     19        -11.224257   1.000000
     20        -10.842995   1.000000
     21         -4.433025   1.000000
     22         -2.417227   1.000000
     23          0.591758   1.000000
     24          0.826123   1.000000
     25          0.848492   1.000000
     26          1.293760   1.000000
     27          1.382815   1.000000
     28          1.483854   1.000000
     29          2.262878   1.000000
     30          2.357443   1.000000
     31          2.500759   1.000000
     32          2.798874   1.000000
     33          2.944246   1.000000
     34          3.384046   1.000000
     35          3.554046   1.000000
     36          3.636871   1.000000
     37          3.766071   1.000000
     38          3.847979   1.000000
     39          4.185552   1.000000
     40          4.710638   1.000000
     41          7.436954   0.000000
     42          7.985323   0.000000
     43          8.406738   0.000000
     44          8.656790   0.000000
     45          9.288747   0.000000
     46          9.910481   0.000000
     47         10.797106   0.000000
     48         11.226923   0.000000
     49         11.302462   0.000000
     50         12.474930   0.000000
     51         12.773105   0.000000
     52         14.486264   0.000000
     53         16.453870   0.000000
     54         16.620539   0.000000
     55         17.093086   0.000000
     56         17.181693   0.000000
     57         18.500596   0.000000
     58         19.041297   0.000000
     59         19.430876   0.000000
     60         20.032947   0.000000
     61         20.087752   0.000000
     62         20.460462   0.000000
     63         20.675077   0.000000
     64         21.660254   0.000000
     65         21.814201   0.000000
     66         22.399639   0.000000
     67         22.547150   0.000000
     68         22.933252   0.000000
     69         23.892768   0.000000
     70         24.393051   0.000000
     71         24.976732   0.000000
     72         25.120340   0.000000
     73         25.376432   0.000000
     74         25.923319   0.000000
     75         26.607145   0.000000
     76         26.841118   0.000000
     77         27.119628   0.000000
     78         27.855216   0.000000
     79         28.074281   0.000000
     80         28.303709   0.000000
     81         28.508930   0.000000
     82         29.177661   0.000000
     83         29.589658   0.000000
     84         29.863837   0.000000
     85         30.196460   0.000000
     86         30.380560   0.000000
     87         30.568914   0.000000
     88         31.473980   0.000000
     89         31.540350   0.000000
     90         32.121688   0.000000
     91         32.874514   0.000000
     92         32.978248   0.000000
     93         33.329400   0.000000
     94         33.715553   0.000000
     95         34.030273   0.000000
     96         34.738119   0.000000
 
  0.2307692E+00  0.1269683E-14  0.1282868E-14  0.1314924E-02
      1        -69.591979   1.000000
      2        -33.936773   1.000000
      3        -33.879599   1.000000
      4        -33.711317   1.000000
      5        -16.926682   1.000000
      6        -16.765241   1.000000
      7        -16.750533   1.000000
      8        -16.725363   1.000000
      9        -16.719477   1.000000
     10        -16.700306   1.000000
     11        -16.696283   1.000000
     12        -16.675293   1.000000
     13        -16.633181   1.000000
     14        -16.631869   1.000000
     15        -13.340308   1.000000
     16        -13.005005   1.000000
     17        -12.353706   1.000000
     18        -11.702464   1.000000
     19        -11.246009   1.000000
     20        -10.925500   1.000000
     21         -4.435401   1.000000
     22         -2.701485   1.000000
     23          0.138660   1.000000
     24          0.489033   1.000000
     25          0.973009   1.000000
     26          1.066962   1.000000
     27          1.215841   1.000000
     28          1.431930   1.000000
     29          2.275617   1.000000
     30          2.357934   1.000000
     31          2.446723   1.000000
     32          2.631413   1.000000
     33          2.843026   1.000000
     34          3.261378   1.000000
     35          3.482668   1.000000
     36          3.634232   1.000000
     37          3.817530   1.000000
     38          3.955113   1.000000
     39          4.345617   1.000000
     40          4.744568   1.000000
     41          7.863914   0.000000
     42          7.979134   0.000000
     43          8.766530   0.000000
     44          9.056792   0.000000
     45          9.566493   0.000000
     46          9.754693   0.000000
     47         10.781821   0.000000
     48         10.856033   0.000000
     49         11.592015   0.000000
     50         12.272069   0.000000
     51         13.385963   0.000000
     52         14.786822   0.000000
     53         16.553090   0.000000
     54         16.801180   0.000000
     55         17.411374   0.000000
     56         17.511851   0.000000
     57         18.412930   0.000000
     58         19.073538   0.000000
     59         19.639830   0.000000
     60         19.742669   0.000000
     61         20.144013   0.000000
     62         20.455452   0.000000
     63         20.600916   0.000000
     64         21.673256   0.000000
     65         21.811070   0.000000
     66         22.418744   0.000000
     67         22.532947   0.000000
     68         23.075939   0.000000
     69         23.922945   0.000000
     70         24.303076   0.000000
     71         24.552147   0.000000
     72         25.188118   0.000000
     73         25.607783   0.000000
     74         25.848617   0.000000
     75         26.550115   0.000000
     76         26.750970   0.000000
     77         27.165247   0.000000
     78         27.571229   0.000000
     79         28.131137   0.000000
     80         28.317100   0.000000
     81         28.590217   0.000000
     82         28.920957   0.000000
     83         29.409157   0.000000
     84         29.858691   0.000000
     85         30.075225   0.000000
     86         30.309678   0.000000
     87         30.491581   0.000000
     88         31.361968   0.000000
     89         31.606698   0.000000
     90         32.089486   0.000000
     91         32.758491   0.000000
     92         32.937428   0.000000
     93         33.226778   0.000000
     94         33.798270   0.000000
     95         34.044878   0.000000
     96         34.689007   0.000000
 
  0.3076923E+00  0.1227951E-14  0.1305749E-14  0.1314924E-02
      1        -69.591904   1.000000
      2        -33.945376   1.000000
      3        -33.881796   1.000000
      4        -33.710784   1.000000
      5        -16.917628   1.000000
      6        -16.798795   1.000000
      7        -16.745083   1.000000
      8        -16.722596   1.000000
      9        -16.721192   1.000000
     10        -16.701304   1.000000
     11        -16.688796   1.000000
     12        -16.669055   1.000000
     13        -16.633380   1.000000
     14        -16.633340   1.000000
     15        -13.266329   1.000000
     16        -12.806254   1.000000
     17        -12.149957   1.000000
     18        -11.720716   1.000000
     19        -11.339051   1.000000
     20        -10.975142   1.000000
     21         -4.386029   1.000000
     22         -3.048995   1.000000
     23         -0.588841   1.000000
     24          0.324296   1.000000
     25          0.869880   1.000000
     26          0.993623   1.000000
     27          1.271457   1.000000
     28          1.483221   1.000000
     29          2.212152   1.000000
     30          2.316056   1.000000
     31          2.416713   1.000000
     32          2.554103   1.000000
     33          2.754459   1.000000
     34          3.070444   1.000000
     35          3.348053   1.000000
     36          3.541584   1.000000
     37          3.825323   1.000000
     38          4.215908   1.000000
     39          4.518264   1.000000
     40          4.787992   1.000000
     41          7.971511   0.000000
     42          8.330976   0.000000
     43          9.053082   0.000000
     44          9.471470   0.000000
     45          9.605751   0.000000
     46          9.999072   0.000000
     47         10.415863   0.000000
     48         10.925112   0.000000
     49         11.680529   0.000000
     50         12.036455   0.000000
     51         14.085390   0.000000
     52         15.103645   0.000000
     53         16.577621   0.000000
     54         17.016425   0.000000
     55         17.558500   0.000000
     56         17.891912   0.000000
     57         18.373933   0.000000
     58         19.102441   0.000000
     59         19.546717   0.000000
     60         19.750018   0.000000
     61         20.298691   0.000000
     62         20.522216   0.000000
     63         20.791961   0.000000
     64         21.426027   0.000000
     65         21.900388   0.000000
     66         22.290368   0.000000
     67         22.426195   0.000000
     68         23.123029   0.000000
     69         23.625299   0.000000
     70         24.221776   0.000000
     71         24.471772   0.000000
     72         25.339595   0.000000
     73         25.503011   0.000000
     74         26.027451   0.000000
     75         26.474028   0.000000
     76         26.771950   0.000000
     77         27.204700   0.000000
     78         27.480485   0.000000
     79         27.772415   0.000000
     80         28.432133   0.000000
     81         28.876325   0.000000
     82         29.073085   0.000000
     83         29.351151   0.000000
     84         29.622484   0.000000
     85         29.981012   0.000000
     86         30.264807   0.000000
     87         30.485061   0.000000
     88         31.330579   0.000000
     89         31.635754   0.000000
     90         32.038494   0.000000
     91         32.323617   0.000000
     92         32.778861   0.000000
     93         33.280448   0.000000
     94         33.692769   0.000000
     95         34.049481   0.000000
     96         34.392334   0.000000
 
  0.3846154E+00  0.1290516E-14  0.1329999E-14  0.1314924E-02
      1        -69.591836   1.000000
      2        -33.953008   1.000000
      3        -33.883073   1.000000
      4        -33.710335   1.000000
      5        -16.904820   1.000000
      6        -16.832587   1.000000
      7        -16.739348   1.000000
      8        -16.724410   1.000000
      9        -16.719501   1.000000
     10        -16.706645   1.000000
     11        -16.676999   1.000000
     12        -16.663970   1.000000
     13        -16.634347   1.000000
     14        -16.633791   1.000000
     15        -13.223305   1.000000
     16        -12.554908   1.000000
     17        -11.966961   1.000000
     18        -11.780027   1.000000
     19        -11.477218   1.000000
     20        -10.982531   1.000000
     21         -4.260934   1.000000
     22         -3.415315   1.000000
     23         -1.182813   1.000000
     24          0.181365   1.000000
     25          0.783638   1.000000
     26          0.866317   1.000000
     27          1.488472   1.000000
     28          1.579422   1.000000
     29          2.116517   1.000000
     30          2.275416   1.000000
     31          2.417567   1.000000
     32          2.513731   1.000000
     33          2.672349   1.000000
     34          2.851983   1.000000
     35          3.225566   1.000000
     36          3.480876   1.000000
     37          3.847565   1.000000
     38          4.355446   1.000000
     39          4.648385   1.000000
     40          4.868726   1.000000
     41          7.963906   0.000000
     42          8.729990   0.000000
     43          9.250188   0.000000
     44          9.416196   0.000000
     45          9.870431   0.000000
     46         10.190335   0.000000
     47         10.433612   0.000000
     48         11.036039   0.000000
     49         11.642774   0.000000
     50         11.842521   0.000000
     51         14.532464   0.000000
     52         15.404397   0.000000
     53         16.605920   0.000000
     54         17.079988   0.000000
     55         17.800661   0.000000
     56         18.028887   0.000000
     57         18.577569   0.000000
     58         19.096867   0.000000
     59         19.499100   0.000000
     60         19.621915   0.000000
     61         20.195128   0.000000
     62         20.705888   0.000000
     63         21.140556   0.000000
     64         21.311413   0.000000
     65         21.889615   0.000000
     66         22.037051   0.000000
     67         22.265731   0.000000
     68         23.044557   0.000000
     69         23.415222   0.000000
     70         24.342211   0.000000
     71         24.562848   0.000000
     72         25.277644   0.000000
     73         25.537871   0.000000
     74         26.011597   0.000000
     75         26.357883   0.000000
     76         26.836509   0.000000
     77         27.168951   0.000000
     78         27.589376   0.000000
     79         27.937176   0.000000
     80         28.400178   0.000000
     81         28.755940   0.000000
     82         29.283543   0.000000
     83         29.531482   0.000000
     84         29.606914   0.000000
     85         29.993201   0.000000
     86         30.185000   0.000000
     87         30.552193   0.000000
     88         30.854085   0.000000
     89         31.621152   0.000000
     90         31.995428   0.000000
     91         32.176185   0.000000
     92         32.727067   0.000000
     93         33.130007   0.000000
     94         33.401475   0.000000
     95         33.717144   0.000000
     96         33.851541   0.000000
 
  0.4615385E+00  0.1235183E-14  0.1328010E-14  0.1314924E-02
      1        -69.591803   1.000000
      2        -33.957460   1.000000
      3        -33.883636   1.000000
      4        -33.710085   1.000000
      5        -16.886822   1.000000
      6        -16.862599   1.000000
      7        -16.733789   1.000000
      8        -16.728699   1.000000
      9        -16.715896   1.000000
     10        -16.711618   1.000000
     11        -16.667760   1.000000
     12        -16.663175   1.000000
     13        -16.634585   1.000000
     14        -16.634300   1.000000
     15        -13.203994   1.000000
     16        -12.289372   1.000000
     17        -11.995752   1.000000
     18        -11.802990   1.000000
     19        -11.555527   1.000000
     20        -10.978521   1.000000
     21         -4.053696   1.000000
     22         -3.755857   1.000000
     23         -1.514212   1.000000
     24          0.101473   1.000000
     25          0.743302   1.000000
     26          0.795437   1.000000
     27          1.575761   1.000000
     28          1.747925   1.000000
     29          2.101848   1.000000
     30          2.203466   1.000000
     31          2.409816   1.000000
     32          2.471235   1.000000
     33          2.630966   1.000000
     34          2.692616   1.000000
     35          3.143821   1.000000
     36          3.462928   1.000000
     37          3.864522   1.000000
     38          4.399363   1.000000
     39          4.709075   1.000000
     40          4.947470   1.000000
     41          7.959680   0.000000
     42          8.962311   0.000000
     43          9.254208   0.000000
     44          9.474761   0.000000
     45          9.792137   0.000000
     46         10.435818   0.000000
     47         10.598636   0.000000
     48         11.159199   0.000000
     49         11.499671   0.000000
     50         11.777121   0.000000
     51         14.706459   0.000000
     52         15.575019   0.000000
     53         16.622339   0.000000
     54         17.100962   0.000000
     55         17.867776   0.000000
     56         18.303384   0.000000
     57         18.650241   0.000000
     58         19.066407   0.000000
     59         19.395495   0.000000
     60         19.670351   0.000000
     61         20.265899   0.000000
     62         20.774759   0.000000
     63         21.086363   0.000000
     64         21.282671   0.000000
     65         21.424965   0.000000
     66         21.756321   0.000000
     67         22.422587   0.000000
     68         23.496952   0.000000
     69         23.599735   0.000000
     70         24.274610   0.000000
     71         24.644649   0.000000
     72         25.091974   0.000000
     73         25.416034   0.000000
     74         25.982009   0.000000
     75         26.289960   0.000000
     76         26.659633   0.000000
     77         27.107339   0.000000
     78         27.700530   0.000000
     79         28.114154   0.000000
     80         28.483951   0.000000
     81         29.078233   0.000000
     82         29.429190   0.000000
     83         29.547227   0.000000
     84         29.641127   0.000000
     85         29.973522   0.000000
     86         30.067632   0.000000
     87         30.534288   0.000000
     88         30.711906   0.000000
     89         31.496509   0.000000
     90         32.044415   0.000000
     91         32.304448   0.000000
     92         32.525753   0.000000
     93         32.864680   0.000000
     94         33.100976   0.000000
     95         33.223805   0.000000
     96         33.550541   0.000000
 
  0.7692308E-01  0.7692308E-01  0.1283552E-14  0.6574622E-03
      1        -69.592051   1.000000
      2        -33.929493   1.000000
      3        -33.876672   1.000000
      4        -33.711811   1.000000
      5        -16.933032   1.000000
      6        -16.755012   1.000000
      7        -16.738189   1.000000
      8        -16.727817   1.000000
      9        -16.719513   1.000000
     10        -16.709066   1.000000
     11        -16.692065   1.000000
     12        -16.678495   1.000000
     13        -16.633263   1.000000
     14        -16.630161   1.000000
     15        -13.439295   1.000000
     16        -13.135710   1.000000
     17        -12.517537   1.000000
     18        -11.680571   1.000000
     19        -11.241771   1.000000
     20        -10.842314   1.000000
     21         -4.425746   1.000000
     22         -2.424411   1.000000
     23          0.600754   1.000000
     24          0.818539   1.000000
     25          0.845150   1.000000
     26          1.342879   1.000000
     27          1.379401   1.000000
     28          1.427012   1.000000
     29          2.270734   1.000000
     30          2.384907   1.000000
     31          2.493491   1.000000
     32          2.792025   1.000000
     33          2.943785   1.000000
     34          3.369880   1.000000
     35          3.556620   1.000000
     36          3.650769   1.000000
     37          3.763751   1.000000
     38          3.845885   1.000000
     39          4.179646   1.000000
     40          4.708679   1.000000
     41          7.436955   0.000000
     42          7.998239   0.000000
     43          8.433775   0.000000
     44          8.622913   0.000000
     45          9.310384   0.000000
     46          9.887989   0.000000
     47         10.782529   0.000000
     48         11.238906   0.000000
     49         11.304023   0.000000
     50         12.497902   0.000000
     51         12.763734   0.000000
     52         14.468099   0.000000
     53         16.479830   0.000000
     54         16.581955   0.000000
     55         17.102091   0.000000
     56         17.140536   0.000000
     57         18.554411   0.000000
     58         19.036069   0.000000
     59         19.414133   0.000000
     60         20.045909   0.000000
     61         20.101211   0.000000
     62         20.505056   0.000000
     63         20.688082   0.000000
     64         21.826882   0.000000
     65         21.870864   0.000000
     66         22.300912   0.000000
     67         22.391440   0.000000
     68         22.840741   0.000000
     69         23.888015   0.000000
     70         24.390053   0.000000
     71         25.073513   0.000000
     72         25.118886   0.000000
     73         25.279881   0.000000
     74         25.937175   0.000000
     75         26.681188   0.000000
     76         26.876990   0.000000
     77         27.043253   0.000000
     78         27.881047   0.000000
     79         27.995532   0.000000
     80         28.378027   0.000000
     81         28.468972   0.000000
     82         29.158660   0.000000
     83         29.632989   0.000000
     84         29.870073   0.000000
     85         30.148737   0.000000
     86         30.403285   0.000000
     87         30.562566   0.000000
     88         31.514754   0.000000
     89         31.536442   0.000000
     90         32.140251   0.000000
     91         32.927588   0.000000
     92         32.978116   0.000000
     93         33.397927   0.000000
     94         33.780425   0.000000
     95         33.998342   0.000000
     96         34.635658   0.000000
 
  0.1538462E+00  0.7692308E-01  0.1282868E-14  0.1314924E-02
      1        -69.591975   1.000000
      2        -33.936773   1.000000
      3        -33.879595   1.000000
      4        -33.711316   1.000000
      5        -16.926598   1.000000
      6        -16.765363   1.000000
      7        -16.750446   1.000000
      8        -16.725351   1.000000
      9        -16.719537   1.000000
     10        -16.700219   1.000000
     11        -16.696289   1.000000
     12        -16.675350   1.000000
     13        -16.633185   1.000000
     14        -16.631870   1.000000
     15        -13.345904   1.000000
     16        -13.002766   1.000000
     17        -12.351627   1.000000
     18        -11.670867   1.000000
     19        -11.281235   1.000000
     20        -10.923142   1.000000
     21         -4.422920   1.000000
     22         -2.713447   1.000000