       N       E                     dE             d eps       ncg     rms          rms(c)
DIA:   1    -0.657926295574E+02   -0.65793E+02    0.00000E+00     0   0.000E+00    0.253E-02
DIA:   2    -0.657926275610E+02    0.19964E-05    0.00000E+00     0   0.000E+00    0.113E-02
DIA:   3    -0.657926273972E+02    0.16381E-06    0.00000E+00     0   0.000E+00    0.623E-03
DIA:   4    -0.657926272360E+02    0.16122E-06    0.00000E+00     0   0.000E+00    0.681E-04
DIA:   5    -0.657926272396E+02   -0.36130E-08    0.00000E+00     0   0.000E+00
   1 F= -.65792627E+02 E0= -.65792627E+02  d E =-.239725E-31
 imaginary and real dielectric function
