 vasp.6.4.2 20Jul23 (build Jun 26 2024 13:15:30) complex                         
 executed on              LinuxNV date 2025.03.03  17:55:52
 running    4 mpi-ranks, with    1 threads/rank, on    1 nodes
 distrk:  each k-point on    4 cores,    1 groups
 distr:  one band on NCORE=   1 cores,    4 groups
 OpenACC runtime initialized ...    4 GPUs detected


--------------------------------------------------------------------------------------------------------


 INCAR:
   ALGO = Exact
   NBANDS = 96             (Set this parameters manually)
   LOPTICS = .TRUE.
   CSHIFT = 0.150
   NEDOS = 2000
   ISMEAR = 0
   SIGMA = 0.01
   EDIFF = 1.E-8
   LPEAD = .TRUE.       (Write the derivative of the cell-periodic part of the orbitals)
   ISPIN = 1
   ECUT = 520

 POTCAR:    PAW_PBE O 08Apr2002                   
 POTCAR:    PAW_PBE W_sv 04Sep2015                
 POTCAR:    PAW_PBE Bi_d 06Sep2000                
 POTCAR:    PAW_PBE O 08Apr2002                   
   VRHFIN =O: s2p4                                                                                  
   LEXCH  = PE                                                                                      
   EATOM  =   432.3788 eV,   31.7789 Ry                                                             
                                                                                                    
   TITEL  = PAW_PBE O 08Apr2002                                                                     
   LULTRA =        F    use ultrasoft PP ?                                                          
   IUNSCR =        1    unscreen: 0-lin 1-nonlin 2-no                                               
   RPACOR =    1.200    partial core radius                                                         
   POMASS =   16.000; ZVAL   =    6.000    mass and valenz                                          
   RCORE  =    1.520    outmost cutoff radius                                                       
   RWIGS  =    1.550; RWIGS  =    0.820    wigner-seitz radius (au A)                               
   ENMAX  =  400.000; ENMIN  =  300.000 eV                                                          
   ICORE  =        2    local potential                                                             
   LCOR   =        T    correct aug charges                                                         
   LPAW   =        T    paw PP                                                                      
   EAUG   =  605.392                                                                                
   DEXC   =    0.000                                                                                
   RMAX   =    1.553    core radius for proj-oper                                                   
   RAUG   =    1.300    factor for augmentation sphere                                              
   RDEP   =    1.550    radius for radial grids                                                     
   RDEPT  =    1.329    core radius for aug-charge                                                  
                                                                                                    
   Atomic configuration                                                                             
    4 entries                                                                                       
     n  l   j            E        occ.                                                              
     1  0  0.50      -514.6923   2.0000                                                             
     2  0  0.50       -23.9615   2.0000                                                             
     2  1  0.50        -9.0305   4.0000                                                             
     3  2  1.50        -9.5241   0.0000                                                             
   Description                                                                                      
     l       E           TYP  RCUT    TYP  RCUT                                                     
     0    -23.9615318     23  1.200                                                                 
     0     -9.5240782     23  1.200                                                                 
     1     -9.0304911     23  1.520                                                                 
     1      8.1634956     23  1.520                                                                 
     2     -9.5240782      7  1.500                                                                 
  local pseudopotential read in
  partial core-charges read in
  partial kinetic energy density read in
  kinetic energy density of atom read in
  atomic valenz-charges read in
  non local Contribution for L=            0  read in
    real space projection operators read in
  non local Contribution for L=            0  read in
    real space projection operators read in
  non local Contribution for L=            1  read in
    real space projection operators read in
  non local Contribution for L=            1  read in
    real space projection operators read in
    PAW grid and wavefunctions read in
 
   number of l-projection  operators is LMAX  =            4
   number of lm-projection operators is LMMAX =            8
 
 POTCAR:    PAW_PBE W_sv 04Sep2015                
   VRHFIN =W : 5p6s5d                                                                               
   LEXCH  = PE                                                                                      
   EATOM  =  1865.5791 eV,  137.1162 Ry                                                             
                                                                                                    
   TITEL  = PAW_PBE W_sv 04Sep2015                                                                  
   LULTRA =        F    use ultrasoft PP ?                                                          
   IUNSCR =        1    unscreen: 0-lin 1-nonlin 2-no                                               
   RPACOR =    2.330    partial core radius                                                         
   POMASS =  183.850; ZVAL   =   14.000    mass and valenz                                          
   RCORE  =    2.500    outmost cutoff radius                                                       
   RWIGS  =    2.750; RWIGS  =    1.455    wigner-seitz radius (au A)                               
   ENMAX  =  223.057; ENMIN  =  167.293 eV                                                          
   ICORE  =        3    local potential                                                             
   LCOR   =        T    correct aug charges                                                         
   LPAW   =        T    paw PP                                                                      
   EAUG   =  373.438                                                                                
   DEXC   =    0.000                                                                                
   RMAX   =    2.565    core radius for proj-oper                                                   
   RAUG   =    1.300    factor for augmentation sphere                                              
   RDEP   =    2.539    radius for radial grids                                                     
   RDEPT  =    2.126    core radius for aug-charge                                                  
                                                                                                    
   Atomic configuration                                                                             
   15 entries                                                                                       
     n  l   j            E        occ.                                                              
     1  0  0.50    -69465.5834   2.0000                                                             
     2  0  0.50    -11986.2640   2.0000                                                             
     2  1  1.50    -10479.8613   6.0000                                                             
     3  0  0.50     -2759.0756   2.0000                                                             
     3  1  1.50     -2313.1855   6.0000                                                             
     3  2  2.50     -1801.1183  10.0000                                                             
     4  0  0.50      -567.6789   2.0000                                                             
     4  1  1.50      -421.4692   6.0000                                                             
     4  2  2.50      -236.3471  10.0000                                                             
     4  3  3.50       -31.2665  14.0000                                                             
     5  0  0.50       -77.1084   2.0000                                                             
     6  0  0.50        -5.1438   1.0000                                                             
     5  1  1.50       -41.3856   6.0000                                                             
     5  2  2.50        -3.3185   5.0000                                                             
     5  3  2.50        -1.3606   0.0000                                                             
   Description                                                                                      
     l       E           TYP  RCUT    TYP  RCUT                                                     
     0    -77.1084470     23  2.100                                                                 
     0     -5.1437956     23  2.300                                                                 
     1    -41.3855615     23  2.500                                                                 
     1     -2.7211652     23  2.500                                                                 
     2     -3.3185025     23  2.500                                                                 
     2     -1.5965151     23  2.500                                                                 
     3     -1.3605826     23  2.500                                                                 
  local pseudopotential read in
  partial core-charges read in
  partial kinetic energy density read in
  kinetic energy density of atom read in
  atomic valenz-charges read in
  non local Contribution for L=            0  read in
    real space projection operators read in
  non local Contribution for L=            0  read in
    real space projection operators read in
  non local Contribution for L=            1  read in
    real space projection operators read in
  non local Contribution for L=            1  read in
    real space projection operators read in
  non local Contribution for L=            2  read in
    real space projection operators read in
  non local Contribution for L=            2  read in
    real space projection operators read in
    PAW grid and wavefunctions read in
 
   number of l-projection  operators is LMAX  =            6
   number of lm-projection operators is LMMAX =           18
 
 POTCAR:    PAW_PBE Bi_d 06Sep2000                
   VRHFIN =Bi:                                                                                      
   LEXCH  = PE                                                                                      
   EATOM  =  1959.2045 eV,  143.9975 Ry                                                             
                                                                                                    
   TITEL  = PAW_PBE Bi_d 06Sep2000                                                                  
   LULTRA =        F    use ultrasoft PP ?                                                          
   IUNSCR =        1    unscreen: 0-lin 1-nonlin 2-no                                               
   RPACOR =    2.200    partial core radius                                                         
   POMASS =  208.980; ZVAL   =   15.000    mass and valenz                                          
   RCORE  =    2.500    outmost cutoff radius                                                       
   RWIGS  =    3.090; RWIGS  =    1.635    wigner-seitz radius (au A)                               
   ENMAX  =  242.839; ENMIN  =  182.129 eV                                                          
   ICORE  =        3    local potential                                                             
   LCOR   =        T    correct aug charges                                                         
   LPAW   =        T    paw PP                                                                      
   EAUG   =  442.899                                                                                
   DEXC   =    0.000                                                                                
   RMAX   =    2.551    core radius for proj-oper                                                   
   RAUG   =    1.300    factor for augmentation sphere                                              
   RDEP   =    2.650    radius for radial grids                                                     
   RDEPT  =    2.039    core radius for aug-charge                                                  
                                                                                                    
   Atomic configuration                                                                             
   16 entries                                                                                       
     n  l   j            E        occ.                                                              
     1  0  0.50    -90639.6581   2.0000                                                             
     2  0  0.50    -16282.4666   2.0000                                                             
     2  1  1.50    -13922.8286   6.0000                                                             
     3  0  0.50     -3930.4763   2.0000                                                             
     3  1  1.50     -3256.7013   6.0000                                                             
     3  2  2.50     -2581.6168  10.0000                                                             
     4  0  0.50      -902.2614   2.0000                                                             
     4  1  1.50      -681.5915   6.0000                                                             
     4  2  2.50      -429.8249  10.0000                                                             
     4  3  3.50      -152.6004  14.0000                                                             
     5  0  0.50      -157.7156   2.0000                                                             
     5  1  1.50       -95.8054   6.0000                                                             
     5  2  2.50       -27.0806  10.0000                                                             
     6  0  0.50       -14.4732   2.0000                                                             
     6  1  1.50        -4.5702   3.0000                                                             
     5  3  2.50        -2.7212   0.0000                                                             
   Description                                                                                      
     l       E           TYP  RCUT    TYP  RCUT                                                     
     2    -27.0805982     23  2.500                                                                 
     2     -1.3605826     23  2.500                                                                 
     0    -14.4732271     23  2.500                                                                 
     0      6.8029130     23  2.500                                                                 
     1     -4.5701651     23  2.500                                                                 
     1     13.6058260     23  2.500                                                                 
     3     -1.3605826      7  2.500                                                                 
  local pseudopotential read in
  partial core-charges read in
  partial kinetic energy density read in
  atomic valenz-charges read in
  non local Contribution for L=            2  read in
    real space projection operators read in
  non local Contribution for L=            2  read in
    real space projection operators read in
  non local Contribution for L=            0  read in
    real space projection operators read in
  non local Contribution for L=            0  read in
    real space projection operators read in
  non local Contribution for L=            1  read in
    real space projection operators read in
  non local Contribution for L=            1  read in
    real space projection operators read in
    PAW grid and wavefunctions read in
 
   number of l-projection  operators is LMAX  =            6
   number of lm-projection operators is LMMAX =           18
 
  PAW_PBE O 08Apr2002                   :
 energy of atom  1       EATOM= -432.3788
 kinetic energy error for atom=    0.1156 (will be added to EATOM!!)
  PAW_PBE W_sv 04Sep2015                :
 energy of atom  2       EATOM=-1865.5791
 kinetic energy error for atom=    0.0065 (will be added to EATOM!!)
  PAW_PBE Bi_d 06Sep2000                :
 energy of atom  3       EATOM=-1959.2045
 kinetic energy error for atom=    0.0072 (will be added to EATOM!!)
 
 
 POSCAR: Generated by VASPKIT code
  positions in direct lattice
  velocities in cartesian coordinates
 exchange correlation table for  LEXCH =        8
   RHO(1)=    0.500       N(1)  =     2000
   RHO(2)=  100.500       N(2)  =     4000
 


--------------------------------------------------------------------------------------------------------


 ion  position               nearest neighbor table
   1  0.312  0.312  0.994-   7 1.80   7 2.17
   2  0.819  0.819  0.006-   7 1.83   7 2.02
   3  0.950  0.725  0.549-   7 1.90   8 2.45   8 2.66
   4  0.725  0.950  0.549-   7 1.90   9 2.45   9 2.66
   5  0.974  0.479  0.918-   8 2.18   9 2.27   9 2.38   8 2.49
   6  0.479  0.974  0.918-   9 2.18   8 2.27   8 2.38   9 2.49
   7  0.765  0.765  0.428-   1 1.80   2 1.83   3 1.90   4 1.90   2 2.02   1 2.17
   8  0.353  0.007  0.354-   5 2.18   6 2.27   6 2.38   3 2.45   5 2.49   3 2.66   9 3.75   9 3.75
                             9 3.76   9 3.76
   9  0.007  0.353  0.354-   6 2.18   5 2.27   5 2.38   4 2.45   6 2.49   4 2.66   8 3.75   8 3.75
                             8 3.76   8 3.76
 
  LATTYP: Found a base centered monoclinic cell.
 ALAT       =     5.4979998276
 B/A-ratio  =     3.0118616946
 C/A-ratio  =     0.6962573929
 COS(beta)  =    -0.6934704271
  
  Lattice vectors:
  
 A1 = (   2.7487708124,  -8.2796075390,  -0.0354900959)
 A2 = (   2.7487708124,   8.2796075390,  -0.0354900959)
 A3 = (  -2.6187928059,  -0.0000000000,   2.7920753089)


Analysis of symmetry for initial positions (statically):
=====================================================================
 Subroutine PRICEL returns:
 Original cell was already a primitive cell.
 

 Routine SETGRP: Setting up the symmetry group for a 
 base centered monoclinic supercell.


 Subroutine GETGRP returns: Found  2 space group operations
 (whereof  2 operations were pure point group operations)
 out of a pool of  4 trial point group operations.


The static configuration has the point symmetry C_1h.


Analysis of symmetry for dynamics (positions and initial velocities):
=====================================================================
 Subroutine PRICEL returns:
 Original cell was already a primitive cell.
 

 Routine SETGRP: Setting up the symmetry group for a 
 base centered monoclinic supercell.


 Subroutine GETGRP returns: Found  2 space group operations
 (whereof  2 operations were pure point group operations)
 out of a pool of  4 trial point group operations.


The dynamic configuration has the point symmetry C_1h.


 Subroutine INISYM returns: Found  2 space group operations
 (whereof  2 operations are pure point group operations),
 and found     1 'primitive' translations


----------------------------------------------------------------------------------------

                                     Primitive cell                                     

  volume of cell :     125.5492

  direct lattice vectors                    reciprocal lattice vectors
     2.748770812 -8.279607539 -0.035490096     0.184129285 -0.060389336  0.172701805
     2.748770812  8.279607539 -0.035490096     0.184129285  0.060389336  0.172701805
    -2.618792806 -0.000000000  2.792075309     0.004680938  0.000000000  0.362546957

  length of vectors
     8.724041582  8.724041582  3.828023026     0.259569603  0.259569603  0.362577174

  position of ions in fractional coordinates (direct lattice)
     0.311601001  0.311601001  0.993614475
     0.818679278  0.818679278  0.006226457
     0.950229929  0.725012998  0.549057765
     0.725012998  0.950229929  0.549057765
     0.974437653  0.479071792  0.917801322
     0.479071792  0.974437653  0.917801322
     0.764774586  0.764774586  0.428491841
     0.353187034  0.007069086  0.353511413
     0.007069086  0.353187034  0.353511413

  ion indices of the primitive-cell ions
   primitive index   ion index
                 1           1
                 2           2
                 3           3
                 4           4
                 5           5
                 6           6
                 7           7
                 8           8
                 9           9

----------------------------------------------------------------------------------------

 
 
 KPOINTS: K-Spacing Value to Generate K-Mesh: 0.02

Automatic generation of k-mesh.
 Grid dimensions read from file:
 generate k-points for:   13   13   18

 Generating k-lattice:

  Cartesian coordinates                     Fractional coordinates (reciprocal lattice)
     0.014163791 -0.004645334  0.013284754     0.076923077  0.000000000  0.000000000
     0.014163791  0.004645334  0.013284754    -0.000000000  0.076923077  0.000000000
     0.000260052  0.000000000  0.020141498    -0.000000000 -0.000000000  0.055555556

  Length of vectors
     0.019966893  0.019966893  0.020143176

  Shift w.r.t. Gamma in fractional coordinates (k-lattice)
     0.000000000  0.000000000  0.000000000

 
 Subroutine IBZKPT returns following result:
 ===========================================
 
 Found    826 irreducible k-points:
 
 Following reciprocal coordinates:
            Coordinates               Weight
  0.000000  0.000000  0.000000      1.000000
  0.076923  0.000000  0.000000      4.000000
  0.153846  0.000000  0.000000      4.000000
  0.230769  0.000000  0.000000      4.000000
  0.307692  0.000000  0.000000      4.000000
  0.384615  0.000000  0.000000      4.000000
  0.461538  0.000000  0.000000      4.000000
  0.076923  0.076923  0.000000      2.000000
  0.153846  0.076923  0.000000      4.000000
  0.230769  0.076923  0.000000      4.000000
  0.307692  0.076923  0.000000      4.000000
  0.384615  0.076923  0.000000      4.000000
  0.461538  0.076923  0.000000      4.000000
 -0.461538  0.076923  0.000000      4.000000
 -0.384615  0.076923  0.000000      4.000000
 -0.307692  0.076923  0.000000      4.000000
 -0.230769  0.076923  0.000000      4.000000
 -0.153846  0.076923  0.000000      4.000000
 -0.076923  0.076923  0.000000      2.000000
  0.153846  0.153846  0.000000      2.000000
  0.230769  0.153846  0.000000      4.000000
  0.307692  0.153846  0.000000      4.000000
  0.384615  0.153846  0.000000      4.000000
  0.461538  0.153846  0.000000      4.000000
 -0.461538  0.153846  0.000000      4.000000
 -0.384615  0.153846  0.000000      4.000000
 -0.307692  0.153846  0.000000      4.000000
 -0.230769  0.153846  0.000000      4.000000
 -0.153846  0.153846  0.000000      2.000000
  0.230769  0.230769  0.000000      2.000000
  0.307692  0.230769  0.000000      4.000000
  0.384615  0.230769  0.000000      4.000000
  0.461538  0.230769  0.000000      4.000000
 -0.461538  0.230769  0.000000      4.000000
 -0.384615  0.230769  0.000000      4.000000
 -0.307692  0.230769  0.000000      4.000000
 -0.230769  0.230769  0.000000      2.000000
  0.307692  0.307692  0.000000      2.000000
  0.384615  0.307692  0.000000      4.000000
  0.461538  0.307692  0.000000      4.000000
 -0.461538  0.307692  0.000000      4.000000
 -0.384615  0.307692  0.000000      4.000000
 -0.307692  0.307692  0.000000      2.000000
  0.384615  0.384615  0.000000      2.000000
  0.461538  0.384615  0.000000      4.000000
 -0.461538  0.384615  0.000000      4.000000
 -0.384615  0.384615  0.000000      2.000000
  0.461538  0.461538  0.000000      2.000000
 -0.461538  0.461538  0.000000      2.000000
  0.000000  0.000000  0.055556      2.000000
  0.076923  0.000000  0.055556      4.000000
  0.153846  0.000000  0.055556      4.000000
  0.230769  0.000000  0.055556      4.000000
  0.307692  0.000000  0.055556      4.000000
  0.384615  0.000000  0.055556      4.000000
  0.461538  0.000000  0.055556      4.000000
 -0.461538  0.000000  0.055556      4.000000
 -0.384615  0.000000  0.055556      4.000000
 -0.307692  0.000000  0.055556      4.000000
 -0.230769  0.000000  0.055556      4.000000
 -0.153846  0.000000  0.055556      4.000000
 -0.076923  0.000000  0.055556      4.000000
  0.076923  0.076923  0.055556      2.000000
  0.153846  0.076923  0.055556      4.000000
  0.230769  0.076923  0.055556      4.000000
  0.307692  0.076923  0.055556      4.000000
  0.384615  0.076923  0.055556      4.000000
  0.461538  0.076923  0.055556      4.000000
 -0.461538  0.076923  0.055556      4.000000
 -0.384615  0.076923  0.055556      4.000000
 -0.307692  0.076923  0.055556      4.000000
 -0.230769  0.076923  0.055556      4.000000
 -0.153846  0.076923  0.055556      4.000000
 -0.076923  0.076923  0.055556      4.000000
  0.153846  0.153846  0.055556      2.000000
  0.230769  0.153846  0.055556      4.000000
  0.307692  0.153846  0.055556      4.000000
  0.384615  0.153846  0.055556      4.000000
  0.461538  0.153846  0.055556      4.000000
 -0.461538  0.153846  0.055556      4.000000
 -0.384615  0.153846  0.055556      4.000000
 -0.307692  0.153846  0.055556      4.000000
 -0.230769  0.153846  0.055556      4.000000
 -0.153846  0.153846  0.055556      4.000000
 -0.076923  0.153846  0.055556      4.000000
  0.230769  0.230769  0.055556      2.000000
  0.307692  0.230769  0.055556      4.000000
  0.384615  0.230769  0.055556      4.000000
  0.461538  0.230769  0.055556      4.000000
 -0.461538  0.230769  0.055556      4.000000
 -0.384615  0.230769  0.055556      4.000000
 -0.307692  0.230769  0.055556      4.000000
 -0.230769  0.230769  0.055556      4.000000
 -0.153846  0.230769  0.055556      4.000000
 -0.076923  0.230769  0.055556      4.000000
  0.307692  0.307692  0.055556      2.000000
  0.384615  0.307692  0.055556      4.000000
  0.461538  0.307692  0.055556      4.000000
 -0.461538  0.307692  0.055556      4.000000
 -0.384615  0.307692  0.055556      4.000000
 -0.307692  0.307692  0.055556      4.000000
 -0.230769  0.307692  0.055556      4.000000
 -0.153846  0.307692  0.055556      4.000000
 -0.076923  0.307692  0.055556      4.000000
  0.384615  0.384615  0.055556      2.000000
  0.461538  0.384615  0.055556      4.000000
 -0.461538  0.384615  0.055556      4.000000
 -0.384615  0.384615  0.055556      4.000000
 -0.307692  0.384615  0.055556      4.000000
 -0.230769  0.384615  0.055556      4.000000
 -0.153846  0.384615  0.055556      4.000000
 -0.076923  0.384615  0.055556      4.000000
  0.461538  0.461538  0.055556      2.000000
 -0.461538  0.461538  0.055556      4.000000
 -0.384615  0.461538  0.055556      4.000000
 -0.307692  0.461538  0.055556      4.000000
 -0.230769  0.461538  0.055556      4.000000
 -0.153846  0.461538  0.055556      4.000000
 -0.076923  0.461538  0.055556      4.000000
 -0.461538 -0.461538  0.055556      2.000000
 -0.384615 -0.461538  0.055556      4.000000
 -0.307692 -0.461538  0.055556      4.000000
 -0.230769 -0.461538  0.055556      4.000000
 -0.153846 -0.461538  0.055556      4.000000
 -0.076923 -0.461538  0.055556      4.000000
 -0.384615 -0.384615  0.055556      2.000000
 -0.307692 -0.384615  0.055556      4.000000
 -0.230769 -0.384615  0.055556      4.000000
 -0.153846 -0.384615  0.055556      4.000000
 -0.076923 -0.384615  0.055556      4.000000
 -0.307692 -0.307692  0.055556      2.000000
 -0.230769 -0.307692  0.055556      4.000000
 -0.153846 -0.307692  0.055556      4.000000
 -0.076923 -0.307692  0.055556      4.000000
 -0.230769 -0.230769  0.055556      2.000000
 -0.153846 -0.230769  0.055556      4.000000
 -0.076923 -0.230769  0.055556      4.000000
 -0.153846 -0.153846  0.055556      2.000000
 -0.076923 -0.153846  0.055556      4.000000
 -0.076923 -0.076923  0.055556      2.000000
  0.000000  0.000000  0.111111      2.000000
  0.076923  0.000000  0.111111      4.000000
  0.153846  0.000000  0.111111      4.000000
  0.230769  0.000000  0.111111      4.000000
  0.307692  0.000000  0.111111      4.000000
  0.384615  0.000000  0.111111      4.000000
  0.461538  0.000000  0.111111      4.000000
 -0.461538  0.000000  0.111111      4.000000
 -0.384615  0.000000  0.111111      4.000000
 -0.307692  0.000000  0.111111      4.000000
 -0.230769  0.000000  0.111111      4.000000
 -0.153846  0.000000  0.111111      4.000000
 -0.076923  0.000000  0.111111      4.000000
  0.076923  0.076923  0.111111      2.000000
  0.153846  0.076923  0.111111      4.000000
  0.230769  0.076923  0.111111      4.000000
  0.307692  0.076923  0.111111      4.000000
  0.384615  0.076923  0.111111      4.000000
  0.461538  0.076923  0.111111      4.000000
 -0.461538  0.076923  0.111111      4.000000
 -0.384615  0.076923  0.111111      4.000000
 -0.307692  0.076923  0.111111      4.000000
 -0.230769  0.076923  0.111111      4.000000
 -0.153846  0.076923  0.111111      4.000000
 -0.076923  0.076923  0.111111      4.000000
  0.153846  0.153846  0.111111      2.000000
  0.230769  0.153846  0.111111      4.000000
  0.307692  0.153846  0.111111      4.000000
  0.384615  0.153846  0.111111      4.000000
  0.461538  0.153846  0.111111      4.000000
 -0.461538  0.153846  0.111111      4.000000
 -0.384615  0.153846  0.111111      4.000000
 -0.307692  0.153846  0.111111      4.000000
 -0.230769  0.153846  0.111111      4.000000
 -0.153846  0.153846  0.111111      4.000000
 -0.076923  0.153846  0.111111      4.000000
  0.230769  0.230769  0.111111      2.000000
  0.307692  0.230769  0.111111      4.000000
  0.384615  0.230769  0.111111      4.000000
  0.461538  0.230769  0.111111      4.000000
 -0.461538  0.230769  0.111111      4.000000
 -0.384615  0.230769  0.111111      4.000000
 -0.307692  0.230769  0.111111      4.000000
 -0.230769  0.230769  0.111111      4.000000
 -0.153846  0.230769  0.111111      4.000000
 -0.076923  0.230769  0.111111      4.000000
  0.307692  0.307692  0.111111      2.000000
  0.384615  0.307692  0.111111      4.000000
  0.461538  0.307692  0.111111      4.000000
 -0.461538  0.307692  0.111111      4.000000
 -0.384615  0.307692  0.111111      4.000000
 -0.307692  0.307692  0.111111      4.000000
 -0.230769  0.307692  0.111111      4.000000
 -0.153846  0.307692  0.111111      4.000000
 -0.076923  0.307692  0.111111      4.000000
  0.384615  0.384615  0.111111      2.000000
  0.461538  0.384615  0.111111      4.000000
 -0.461538  0.384615  0.111111      4.000000
 -0.384615  0.384615  0.111111      4.000000
 -0.307692  0.384615  0.111111      4.000000
 -0.230769  0.384615  0.111111      4.000000
 -0.153846  0.384615  0.111111      4.000000
 -0.076923  0.384615  0.111111      4.000000
  0.461538  0.461538  0.111111      2.000000
 -0.461538  0.461538  0.111111      4.000000
 -0.384615  0.461538  0.111111      4.000000
 -0.307692  0.461538  0.111111      4.000000
 -0.230769  0.461538  0.111111      4.000000
 -0.153846  0.461538  0.111111      4.000000
 -0.076923  0.461538  0.111111      4.000000
 -0.461538 -0.461538  0.111111      2.000000
 -0.384615 -0.461538  0.111111      4.000000
 -0.307692 -0.461538  0.111111      4.000000
 -0.230769 -0.461538  0.111111      4.000000
 -0.153846 -0.461538  0.111111      4.000000
 -0.076923 -0.461538  0.111111      4.000000
 -0.384615 -0.384615  0.111111      2.000000
 -0.307692 -0.384615  0.111111      4.000000
 -0.230769 -0.384615  0.111111      4.000000
 -0.153846 -0.384615  0.111111      4.000000
 -0.076923 -0.384615  0.111111      4.000000
 -0.307692 -0.307692  0.111111      2.000000
 -0.230769 -0.307692  0.111111      4.000000
 -0.153846 -0.307692  0.111111      4.000000
 -0.076923 -0.307692  0.111111      4.000000
 -0.230769 -0.230769  0.111111      2.000000
 -0.153846 -0.230769  0.111111      4.000000
 -0.076923 -0.230769  0.111111      4.000000
 -0.153846 -0.153846  0.111111      2.000000
 -0.076923 -0.153846  0.111111      4.000000
 -0.076923 -0.076923  0.111111      2.000000
  0.000000  0.000000  0.166667      2.000000
  0.076923  0.000000  0.166667      4.000000
  0.153846  0.000000  0.166667      4.000000
  0.230769  0.000000  0.166667      4.000000
  0.307692  0.000000  0.166667      4.000000
  0.384615  0.000000  0.166667      4.000000
  0.461538  0.000000  0.166667      4.000000
 -0.461538  0.000000  0.166667      4.000000
 -0.384615  0.000000  0.166667      4.000000
 -0.307692  0.000000  0.166667      4.000000
 -0.230769  0.000000  0.166667      4.000000
 -0.153846  0.000000  0.166667      4.000000
 -0.076923  0.000000  0.166667      4.000000
  0.076923  0.076923  0.166667      2.000000
  0.153846  0.076923  0.166667      4.000000
  0.230769  0.076923  0.166667      4.000000
  0.307692  0.076923  0.166667      4.000000
  0.384615  0.076923  0.166667      4.000000
  0.461538  0.076923  0.166667      4.000000
 -0.461538  0.076923  0.166667      4.000000
 -0.384615  0.076923  0.166667      4.000000
 -0.307692  0.076923  0.166667      4.000000
 -0.230769  0.076923  0.166667      4.000000
 -0.153846  0.076923  0.166667      4.000000
 -0.076923  0.076923  0.166667      4.000000
  0.153846  0.153846  0.166667      2.000000
  0.230769  0.153846  0.166667      4.000000
  0.307692  0.153846  0.166667      4.000000
  0.384615  0.153846  0.166667      4.000000
  0.461538  0.153846  0.166667      4.000000
 -0.461538  0.153846  0.166667      4.000000
 -0.384615  0.153846  0.166667      4.000000
 -0.307692  0.153846  0.166667      4.000000
 -0.230769  0.153846  0.166667      4.000000
 -0.153846  0.153846  0.166667      4.000000
 -0.076923  0.153846  0.166667      4.000000
  0.230769  0.230769  0.166667      2.000000
  0.307692  0.230769  0.166667      4.000000
  0.384615  0.230769  0.166667      4.000000
  0.461538  0.230769  0.166667      4.000000
 -0.461538  0.230769  0.166667      4.000000
 -0.384615  0.230769  0.166667      4.000000
 -0.307692  0.230769  0.166667      4.000000
 -0.230769  0.230769  0.166667      4.000000
 -0.153846  0.230769  0.166667      4.000000
 -0.076923  0.230769  0.166667      4.000000
  0.307692  0.307692  0.166667      2.000000
  0.384615  0.307692  0.166667      4.000000
  0.461538  0.307692  0.166667      4.000000
 -0.461538  0.307692  0.166667      4.000000
 -0.384615  0.307692  0.166667      4.000000
 -0.307692  0.307692  0.166667      4.000000
 -0.230769  0.307692  0.166667      4.000000
 -0.153846  0.307692  0.166667      4.000000
 -0.076923  0.307692  0.166667      4.000000
  0.384615  0.384615  0.166667      2.000000
  0.461538  0.384615  0.166667      4.000000
 -0.461538  0.384615  0.166667      4.000000
 -0.384615  0.384615  0.166667      4.000000
 -0.307692  0.384615  0.166667      4.000000
 -0.230769  0.384615  0.166667      4.000000
 -0.153846  0.384615  0.166667      4.000000
 -0.076923  0.384615  0.166667      4.000000
  0.461538  0.461538  0.166667      2.000000
 -0.461538  0.461538  0.166667      4.000000
 -0.384615  0.461538  0.166667      4.000000
 -0.307692  0.461538  0.166667      4.000000
 -0.230769  0.461538  0.166667      4.000000
 -0.153846  0.461538  0.166667      4.000000
 -0.076923  0.461538  0.166667      4.000000
 -0.461538 -0.461538  0.166667      2.000000
 -0.384615 -0.461538  0.166667      4.000000
 -0.307692 -0.461538  0.166667      4.000000
 -0.230769 -0.461538  0.166667      4.000000
 -0.153846 -0.461538  0.166667      4.000000
 -0.076923 -0.461538  0.166667      4.000000
 -0.384615 -0.384615  0.166667      2.000000
 -0.307692 -0.384615  0.166667      4.000000
 -0.230769 -0.384615  0.166667      4.000000
 -0.153846 -0.384615  0.166667      4.000000
 -0.076923 -0.384615  0.166667      4.000000
 -0.307692 -0.307692  0.166667      2.000000
 -0.230769 -0.307692  0.166667      4.000000
 -0.153846 -0.307692  0.166667      4.000000
 -0.076923 -0.307692  0.166667      4.000000
 -0.230769 -0.230769  0.166667      2.000000
 -0.153846 -0.230769  0.166667      4.000000
 -0.076923 -0.230769  0.166667      4.000000
 -0.153846 -0.153846  0.166667      2.000000
 -0.076923 -0.153846  0.166667      4.000000
 -0.076923 -0.076923  0.166667      2.000000
  0.000000  0.000000  0.222222      2.000000
  0.076923  0.000000  0.222222      4.000000
  0.153846  0.000000  0.222222      4.000000
  0.230769  0.000000  0.222222      4.000000
  0.307692  0.000000  0.222222      4.000000
  0.384615  0.000000  0.222222      4.000000
  0.461538  0.000000  0.222222      4.000000
 -0.461538  0.000000  0.222222      4.000000
 -0.384615  0.000000  0.222222      4.000000
 -0.307692  0.000000  0.222222      4.000000
 -0.230769  0.000000  0.222222      4.000000
 -0.153846  0.000000  0.222222      4.000000
 -0.076923  0.000000  0.222222      4.000000
  0.076923  0.076923  0.222222      2.000000
  0.153846  0.076923  0.222222      4.000000
  0.230769  0.076923  0.222222      4.000000
  0.307692  0.076923  0.222222      4.000000
  0.384615  0.076923  0.222222      4.000000
  0.461538  0.076923  0.222222      4.000000
 -0.461538  0.076923  0.222222      4.000000
 -0.384615  0.076923  0.222222      4.000000
 -0.307692  0.076923  0.222222      4.000000
 -0.230769  0.076923  0.222222      4.000000
 -0.153846  0.076923  0.222222      4.000000
 -0.076923  0.076923  0.222222      4.000000
  0.153846  0.153846  0.222222      2.000000
  0.230769  0.153846  0.222222      4.000000
  0.307692  0.153846  0.222222      4.000000
  0.384615  0.153846  0.222222      4.000000
  0.461538  0.153846  0.222222      4.000000
 -0.461538  0.153846  0.222222      4.000000
 -0.384615  0.153846  0.222222      4.000000
 -0.307692  0.153846  0.222222      4.000000
 -0.230769  0.153846  0.222222      4.000000
 -0.153846  0.153846  0.222222      4.000000
 -0.076923  0.153846  0.222222      4.000000
  0.230769  0.230769  0.222222      2.000000
  0.307692  0.230769  0.222222      4.000000
  0.384615  0.230769  0.222222      4.000000
  0.461538  0.230769  0.222222      4.000000
 -0.461538  0.230769  0.222222      4.000000
 -0.384615  0.230769  0.222222      4.000000
 -0.307692  0.230769  0.222222      4.000000
 -0.230769  0.230769  0.222222      4.000000
 -0.153846  0.230769  0.222222      4.000000
 -0.076923  0.230769  0.222222      4.000000
  0.307692  0.307692  0.222222      2.000000
  0.384615  0.307692  0.222222      4.000000
  0.461538  0.307692  0.222222      4.000000
 -0.461538  0.307692  0.222222      4.000000
 -0.384615  0.307692  0.222222      4.000000
 -0.307692  0.307692  0.222222      4.000000
 -0.230769  0.307692  0.222222      4.000000
 -0.153846  0.307692  0.222222      4.000000
 -0.076923  0.307692  0.222222      4.000000
  0.384615  0.384615  0.222222      2.000000
  0.461538  0.384615  0.222222      4.000000
 -0.461538  0.384615  0.222222      4.000000
 -0.384615  0.384615  0.222222      4.000000
 -0.307692  0.384615  0.222222      4.000000
 -0.230769  0.384615  0.222222      4.000000
 -0.153846  0.384615  0.222222      4.000000
 -0.076923  0.384615  0.222222      4.000000
  0.461538  0.461538  0.222222      2.000000
 -0.461538  0.461538  0.222222      4.000000
 -0.384615  0.461538  0.222222      4.000000
 -0.307692  0.461538  0.222222      4.000000
 -0.230769  0.461538  0.222222      4.000000
 -0.153846  0.461538  0.222222      4.000000
 -0.076923  0.461538  0.222222      4.000000
 -0.461538 -0.461538  0.222222      2.000000
 -0.384615 -0.461538  0.222222      4.000000
 -0.307692 -0.461538  0.222222      4.000000
 -0.230769 -0.461538  0.222222      4.000000
 -0.153846 -0.461538  0.222222      4.000000
 -0.076923 -0.461538  0.222222      4.000000
 -0.384615 -0.384615  0.222222      2.000000
 -0.307692 -0.384615  0.222222      4.000000
 -0.230769 -0.384615  0.222222      4.000000
 -0.153846 -0.384615  0.222222      4.000000
 -0.076923 -0.384615  0.222222      4.000000
 -0.307692 -0.307692  0.222222      2.000000
 -0.230769 -0.307692  0.222222      4.000000
 -0.153846 -0.307692  0.222222      4.000000
 -0.076923 -0.307692  0.222222      4.000000
 -0.230769 -0.230769  0.222222      2.000000
 -0.153846 -0.230769  0.222222      4.000000
 -0.076923 -0.230769  0.222222      4.000000
 -0.153846 -0.153846  0.222222      2.000000
 -0.076923 -0.153846  0.222222      4.000000
 -0.076923 -0.076923  0.222222      2.000000
  0.000000  0.000000  0.277778      2.000000
  0.076923  0.000000  0.277778      4.000000
  0.153846  0.000000  0.277778      4.000000
  0.230769  0.000000  0.277778      4.000000
  0.307692  0.000000  0.277778      4.000000
  0.384615  0.000000  0.277778      4.000000
  0.461538  0.000000  0.277778      4.000000
 -0.461538  0.000000  0.277778      4.000000
 -0.384615  0.000000  0.277778      4.000000
 -0.307692  0.000000  0.277778      4.000000
 -0.230769  0.000000  0.277778      4.000000
 -0.153846  0.000000  0.277778      4.000000
 -0.076923  0.000000  0.277778      4.000000
  0.076923  0.076923  0.277778      2.000000
  0.153846  0.076923  0.277778      4.000000
  0.230769  0.076923  0.277778      4.000000
  0.307692  0.076923  0.277778      4.000000
  0.384615  0.076923  0.277778      4.000000
  0.461538  0.076923  0.277778      4.000000
 -0.461538  0.076923  0.277778      4.000000
 -0.384615  0.076923  0.277778      4.000000
 -0.307692  0.076923  0.277778      4.000000
 -0.230769  0.076923  0.277778      4.000000
 -0.153846  0.076923  0.277778      4.000000
 -0.076923  0.076923  0.277778      4.000000
  0.153846  0.153846  0.277778      2.000000
  0.230769  0.153846  0.277778      4.000000
  0.307692  0.153846  0.277778      4.000000
  0.384615  0.153846  0.277778      4.000000
  0.461538  0.153846  0.277778      4.000000
 -0.461538  0.153846  0.277778      4.000000
 -0.384615  0.153846  0.277778      4.000000
 -0.307692  0.153846  0.277778      4.000000
 -0.230769  0.153846  0.277778      4.000000
 -0.153846  0.153846  0.277778      4.000000
 -0.076923  0.153846  0.277778      4.000000
  0.230769  0.230769  0.277778      2.000000
  0.307692  0.230769  0.277778      4.000000
  0.384615  0.230769  0.277778      4.000000
  0.461538  0.230769  0.277778      4.000000
 -0.461538  0.230769  0.277778      4.000000
 -0.384615  0.230769  0.277778      4.000000
 -0.307692  0.230769  0.277778      4.000000
 -0.230769  0.230769  0.277778      4.000000
 -0.153846  0.230769  0.277778      4.000000
 -0.076923  0.230769  0.277778      4.000000
  0.307692  0.307692  0.277778      2.000000
  0.384615  0.307692  0.277778      4.000000
  0.461538  0.307692  0.277778      4.000000
 -0.461538  0.307692  0.277778      4.000000
 -0.384615  0.307692  0.277778      4.000000
 -0.307692  0.307692  0.277778      4.000000
 -0.230769  0.307692  0.277778      4.000000
 -0.153846  0.307692  0.277778      4.000000
 -0.076923  0.307692  0.277778      4.000000
  0.384615  0.384615  0.277778      2.000000
  0.461538  0.384615  0.277778      4.000000
 -0.461538  0.384615  0.277778      4.000000
 -0.384615  0.384615  0.277778      4.000000
 -0.307692  0.384615  0.277778      4.000000
 -0.230769  0.384615  0.277778      4.000000
 -0.153846  0.384615  0.277778      4.000000
 -0.076923  0.384615  0.277778      4.000000
  0.461538  0.461538  0.277778      2.000000
 -0.461538  0.461538  0.277778      4.000000
 -0.384615  0.461538  0.277778      4.000000
 -0.307692  0.461538  0.277778      4.000000
 -0.230769  0.461538  0.277778      4.000000
 -0.153846  0.461538  0.277778      4.000000
 -0.076923  0.461538  0.277778      4.000000
 -0.461538 -0.461538  0.277778      2.000000
 -0.384615 -0.461538  0.277778      4.000000
 -0.307692 -0.461538  0.277778      4.000000
 -0.230769 -0.461538  0.277778      4.000000
 -0.153846 -0.461538  0.277778      4.000000
 -0.076923 -0.461538  0.277778      4.000000
 -0.384615 -0.384615  0.277778      2.000000
 -0.307692 -0.384615  0.277778      4.000000
 -0.230769 -0.384615  0.277778      4.000000
 -0.153846 -0.384615  0.277778      4.000000
 -0.076923 -0.384615  0.277778      4.000000
 -0.307692 -0.307692  0.277778      2.000000
 -0.230769 -0.307692  0.277778      4.000000
 -0.153846 -0.307692  0.277778      4.000000
 -0.076923 -0.307692  0.277778      4.000000
 -0.230769 -0.230769  0.277778      2.000000
 -0.153846 -0.230769  0.277778      4.000000
 -0.076923 -0.230769  0.277778      4.000000
 -0.153846 -0.153846  0.277778      2.000000
 -0.076923 -0.153846  0.277778      4.000000
 -0.076923 -0.076923  0.277778      2.000000
  0.000000  0.000000  0.333333      2.000000
  0.076923  0.000000  0.333333      4.000000
  0.153846  0.000000  0.333333      4.000000
  0.230769  0.000000  0.333333      4.000000
  0.307692  0.000000  0.333333      4.000000
  0.384615  0.000000  0.333333      4.000000
  0.461538  0.000000  0.333333      4.000000
 -0.461538  0.000000  0.333333      4.000000
 -0.384615  0.000000  0.333333      4.000000
 -0.307692  0.000000  0.333333      4.000000
 -0.230769  0.000000  0.333333      4.000000
 -0.153846  0.000000  0.333333      4.000000
 -0.076923  0.000000  0.333333      4.000000
  0.076923  0.076923  0.333333      2.000000
  0.153846  0.076923  0.333333      4.000000
  0.230769  0.076923  0.333333      4.000000
  0.307692  0.076923  0.333333      4.000000
  0.384615  0.076923  0.333333      4.000000
  0.461538  0.076923  0.333333      4.000000
 -0.461538  0.076923  0.333333      4.000000
 -0.384615  0.076923  0.333333      4.000000
 -0.307692  0.076923  0.333333      4.000000
 -0.230769  0.076923  0.333333      4.000000
 -0.153846  0.076923  0.333333      4.000000
 -0.076923  0.076923  0.333333      4.000000
  0.153846  0.153846  0.333333      2.000000
  0.230769  0.153846  0.333333      4.000000
  0.307692  0.153846  0.333333      4.000000
  0.384615  0.153846  0.333333      4.000000
  0.461538  0.153846  0.333333      4.000000
 -0.461538  0.153846  0.333333      4.000000
 -0.384615  0.153846  0.333333      4.000000
 -0.307692  0.153846  0.333333      4.000000
 -0.230769  0.153846  0.333333      4.000000
 -0.153846  0.153846  0.333333      4.000000
 -0.076923  0.153846  0.333333      4.000000
  0.230769  0.230769  0.333333      2.000000
  0.307692  0.230769  0.333333      4.000000
  0.384615  0.230769  0.333333      4.000000
  0.461538  0.230769  0.333333      4.000000
 -0.461538  0.230769  0.333333      4.000000
 -0.384615  0.230769  0.333333      4.000000
 -0.307692  0.230769  0.333333      4.000000
 -0.230769  0.230769  0.333333      4.000000
 -0.153846  0.230769  0.333333      4.000000
 -0.076923  0.230769  0.333333      4.000000
  0.307692  0.307692  0.333333      2.000000
  0.384615  0.307692  0.333333      4.000000
  0.461538  0.307692  0.333333      4.000000
 -0.461538  0.307692  0.333333      4.000000
 -0.384615  0.307692  0.333333      4.000000
 -0.307692  0.307692  0.333333      4.000000
 -0.230769  0.307692  0.333333      4.000000
 -0.153846  0.307692  0.333333      4.000000
 -0.076923  0.307692  0.333333      4.000000
  0.384615  0.384615  0.333333      2.000000
  0.461538  0.384615  0.333333      4.000000
 -0.461538  0.384615  0.333333      4.000000
 -0.384615  0.384615  0.333333      4.000000
 -0.307692  0.384615  0.333333      4.000000
 -0.230769  0.384615  0.333333      4.000000
 -0.153846  0.384615  0.333333      4.000000
 -0.076923  0.384615  0.333333      4.000000
  0.461538  0.461538  0.333333      2.000000
 -0.461538  0.461538  0.333333      4.000000
 -0.384615  0.461538  0.333333      4.000000
 -0.307692  0.461538  0.333333      4.000000
 -0.230769  0.461538  0.333333      4.000000
 -0.153846  0.461538  0.333333      4.000000
 -0.076923  0.461538  0.333333      4.000000
 -0.461538 -0.461538  0.333333      2.000000
 -0.384615 -0.461538  0.333333      4.000000
 -0.307692 -0.461538  0.333333      4.000000
 -0.230769 -0.461538  0.333333      4.000000
 -0.153846 -0.461538  0.333333      4.000000
 -0.076923 -0.461538  0.333333      4.000000
 -0.384615 -0.384615  0.333333      2.000000
 -0.307692 -0.384615  0.333333      4.000000
 -0.230769 -0.384615  0.333333      4.000000
 -0.153846 -0.384615  0.333333      4.000000
 -0.076923 -0.384615  0.333333      4.000000
 -0.307692 -0.307692  0.333333      2.000000
 -0.230769 -0.307692  0.333333      4.000000
 -0.153846 -0.307692  0.333333      4.000000
 -0.076923 -0.307692  0.333333      4.000000
 -0.230769 -0.230769  0.333333      2.000000
 -0.153846 -0.230769  0.333333      4.000000
 -0.076923 -0.230769  0.333333      4.000000
 -0.153846 -0.153846  0.333333      2.000000
 -0.076923 -0.153846  0.333333      4.000000
 -0.076923 -0.076923  0.333333      2.000000
  0.000000  0.000000  0.388889      2.000000
  0.076923  0.000000  0.388889      4.000000
  0.153846  0.000000  0.388889      4.000000
  0.230769  0.000000  0.388889      4.000000
  0.307692  0.000000  0.388889      4.000000
  0.384615  0.000000  0.388889      4.000000
  0.461538  0.000000  0.388889      4.000000
 -0.461538  0.000000  0.388889      4.000000
 -0.384615  0.000000  0.388889      4.000000
 -0.307692  0.000000  0.388889      4.000000
 -0.230769  0.000000  0.388889      4.000000
 -0.153846  0.000000  0.388889      4.000000
 -0.076923  0.000000  0.388889      4.000000
  0.076923  0.076923  0.388889      2.000000
  0.153846  0.076923  0.388889      4.000000
  0.230769  0.076923  0.388889      4.000000
  0.307692  0.076923  0.388889      4.000000
  0.384615  0.076923  0.388889      4.000000
  0.461538  0.076923  0.388889      4.000000
 -0.461538  0.076923  0.388889      4.000000
 -0.384615  0.076923  0.388889      4.000000
 -0.307692  0.076923  0.388889      4.000000
 -0.230769  0.076923  0.388889      4.000000
 -0.153846  0.076923  0.388889      4.000000
 -0.076923  0.076923  0.388889      4.000000
  0.153846  0.153846  0.388889      2.000000
  0.230769  0.153846  0.388889      4.000000
  0.307692  0.153846  0.388889      4.000000
  0.384615  0.153846  0.388889      4.000000
  0.461538  0.153846  0.388889      4.000000
 -0.461538  0.153846  0.388889      4.000000
 -0.384615  0.153846  0.388889      4.000000
 -0.307692  0.153846  0.388889      4.000000
 -0.230769  0.153846  0.388889      4.000000
 -0.153846  0.153846  0.388889      4.000000
 -0.076923  0.153846  0.388889      4.000000
  0.230769  0.230769  0.388889      2.000000
  0.307692  0.230769  0.388889      4.000000
  0.384615  0.230769  0.388889      4.000000
  0.461538  0.230769  0.388889      4.000000
 -0.461538  0.230769  0.388889      4.000000
 -0.384615  0.230769  0.388889      4.000000
 -0.307692  0.230769  0.388889      4.000000
 -0.230769  0.230769  0.388889      4.000000
 -0.153846  0.230769  0.388889      4.000000
 -0.076923  0.230769  0.388889      4.000000
  0.307692  0.307692  0.388889      2.000000
  0.384615  0.307692  0.388889      4.000000
  0.461538  0.307692  0.388889      4.000000
 -0.461538  0.307692  0.388889      4.000000
 -0.384615  0.307692  0.388889      4.000000
 -0.307692  0.307692  0.388889      4.000000
 -0.230769  0.307692  0.388889      4.000000
 -0.153846  0.307692  0.388889      4.000000
 -0.076923  0.307692  0.388889      4.000000
  0.384615  0.384615  0.388889      2.000000
  0.461538  0.384615  0.388889      4.000000
 -0.461538  0.384615  0.388889      4.000000
 -0.384615  0.384615  0.388889      4.000000
 -0.307692  0.384615  0.388889      4.000000
 -0.230769  0.384615  0.388889      4.000000
 -0.153846  0.384615  0.388889      4.000000
 -0.076923  0.384615  0.388889      4.000000
  0.461538  0.461538  0.388889      2.000000
 -0.461538  0.461538  0.388889      4.000000
 -0.384615  0.461538  0.388889      4.000000
 -0.307692  0.461538  0.388889      4.000000
 -0.230769  0.461538  0.388889      4.000000
 -0.153846  0.461538  0.388889      4.000000
 -0.076923  0.461538  0.388889      4.000000
 -0.461538 -0.461538  0.388889      2.000000
 -0.384615 -0.461538  0.388889      4.000000
 -0.307692 -0.461538  0.388889      4.000000
 -0.230769 -0.461538  0.388889      4.000000
 -0.153846 -0.461538  0.388889      4.000000
 -0.076923 -0.461538  0.388889      4.000000
 -0.384615 -0.384615  0.388889      2.000000
 -0.307692 -0.384615  0.388889      4.000000
 -0.230769 -0.384615  0.388889      4.000000
 -0.153846 -0.384615  0.388889      4.000000
 -0.076923 -0.384615  0.388889      4.000000
 -0.307692 -0.307692  0.388889      2.000000
 -0.230769 -0.307692  0.388889      4.000000
 -0.153846 -0.307692  0.388889      4.000000
 -0.076923 -0.307692  0.388889      4.000000
 -0.230769 -0.230769  0.388889      2.000000
 -0.153846 -0.230769  0.388889      4.000000
 -0.076923 -0.230769  0.388889      4.000000
 -0.153846 -0.153846  0.388889      2.000000
 -0.076923 -0.153846  0.388889      4.000000
 -0.076923 -0.076923  0.388889      2.000000
  0.000000  0.000000  0.444444      2.000000
  0.076923  0.000000  0.444444      4.000000
  0.153846  0.000000  0.444444      4.000000
  0.230769  0.000000  0.444444      4.000000
  0.307692  0.000000  0.444444      4.000000
  0.384615  0.000000  0.444444      4.000000
  0.461538  0.000000  0.444444      4.000000
 -0.461538  0.000000  0.444444      4.000000
 -0.384615  0.000000  0.444444      4.000000
 -0.307692  0.000000  0.444444      4.000000
 -0.230769  0.000000  0.444444      4.000000
 -0.153846  0.000000  0.444444      4.000000
 -0.076923  0.000000  0.444444      4.000000
  0.076923  0.076923  0.444444      2.000000
  0.153846  0.076923  0.444444      4.000000
  0.230769  0.076923  0.444444      4.000000
  0.307692  0.076923  0.444444      4.000000
  0.384615  0.076923  0.444444      4.000000
  0.461538  0.076923  0.444444      4.000000
 -0.461538  0.076923  0.444444      4.000000
 -0.384615  0.076923  0.444444      4.000000
 -0.307692  0.076923  0.444444      4.000000
 -0.230769  0.076923  0.444444      4.000000
 -0.153846  0.076923  0.444444      4.000000
 -0.076923  0.076923  0.444444      4.000000
  0.153846  0.153846  0.444444      2.000000
  0.230769  0.153846  0.444444      4.000000
  0.307692  0.153846  0.444444      4.000000
  0.384615  0.153846  0.444444      4.000000
  0.461538  0.153846  0.444444      4.000000
 -0.461538  0.153846  0.444444      4.000000
 -0.384615  0.153846  0.444444      4.000000
 -0.307692  0.153846  0.444444      4.000000
 -0.230769  0.153846  0.444444      4.000000
 -0.153846  0.153846  0.444444      4.000000
 -0.076923  0.153846  0.444444      4.000000
  0.230769  0.230769  0.444444      2.000000
  0.307692  0.230769  0.444444      4.000000
  0.384615  0.230769  0.444444      4.000000
  0.461538  0.230769  0.444444      4.000000
 -0.461538  0.230769  0.444444      4.000000
 -0.384615  0.230769  0.444444      4.000000
 -0.307692  0.230769  0.444444      4.000000
 -0.230769  0.230769  0.444444      4.000000
 -0.153846  0.230769  0.444444      4.000000
 -0.076923  0.230769  0.444444      4.000000
  0.307692  0.307692  0.444444      2.000000
  0.384615  0.307692  0.444444      4.000000
  0.461538  0.307692  0.444444      4.000000
 -0.461538  0.307692  0.444444      4.000000
 -0.384615  0.307692  0.444444      4.000000
 -0.307692  0.307692  0.444444      4.000000
 -0.230769  0.307692  0.444444      4.000000
 -0.153846  0.307692  0.444444      4.000000
 -0.076923  0.307692  0.444444      4.000000
  0.384615  0.384615  0.444444      2.000000
  0.461538  0.384615  0.444444      4.000000
 -0.461538  0.384615  0.444444      4.000000
 -0.384615  0.384615  0.444444      4.000000
 -0.307692  0.384615  0.444444      4.000000
 -0.230769  0.384615  0.444444      4.000000
 -0.153846  0.384615  0.444444      4.000000
 -0.076923  0.384615  0.444444      4.000000
  0.461538  0.461538  0.444444      2.000000
 -0.461538  0.461538  0.444444      4.000000
 -0.384615  0.461538  0.444444      4.000000
 -0.307692  0.461538  0.444444      4.000000
 -0.230769  0.461538  0.444444      4.000000
 -0.153846  0.461538  0.444444      4.000000
 -0.076923  0.461538  0.444444      4.000000
 -0.461538 -0.461538  0.444444      2.000000
 -0.384615 -0.461538  0.444444      4.000000
 -0.307692 -0.461538  0.444444      4.000000
 -0.230769 -0.461538  0.444444      4.000000
 -0.153846 -0.461538  0.444444      4.000000
 -0.076923 -0.461538  0.444444      4.000000
 -0.384615 -0.384615  0.444444      2.000000
 -0.307692 -0.384615  0.444444      4.000000
 -0.230769 -0.384615  0.444444      4.000000
 -0.153846 -0.384615  0.444444      4.000000
 -0.076923 -0.384615  0.444444      4.000000
 -0.307692 -0.307692  0.444444      2.000000
 -0.230769 -0.307692  0.444444      4.000000
 -0.153846 -0.307692  0.444444      4.000000
 -0.076923 -0.307692  0.444444      4.000000
 -0.230769 -0.230769  0.444444      2.000000
 -0.153846 -0.230769  0.444444      4.000000
 -0.076923 -0.230769  0.444444      4.000000
 -0.153846 -0.153846  0.444444      2.000000
 -0.076923 -0.153846  0.444444      4.000000
 -0.076923 -0.076923  0.444444      2.000000
  0.000000  0.000000  0.500000      1.000000
  0.076923  0.000000  0.500000      4.000000
  0.153846  0.000000  0.500000      4.000000
  0.230769  0.000000  0.500000      4.000000
  0.307692  0.000000  0.500000      4.000000
  0.384615  0.000000  0.500000      4.000000
  0.461538  0.000000  0.500000      4.000000
  0.076923  0.076923  0.500000      2.000000
  0.153846  0.076923  0.500000      4.000000
  0.230769  0.076923  0.500000      4.000000
  0.307692  0.076923  0.500000      4.000000
  0.384615  0.076923  0.500000      4.000000
  0.461538  0.076923  0.500000      4.000000
 -0.461538  0.076923  0.500000      4.000000
 -0.384615  0.076923  0.500000      4.000000
 -0.307692  0.076923  0.500000      4.000000
 -0.230769  0.076923  0.500000      4.000000
 -0.153846  0.076923  0.500000      4.000000
 -0.076923  0.076923  0.500000      2.000000
  0.153846  0.153846  0.500000      2.000000
  0.230769  0.153846  0.500000      4.000000
  0.307692  0.153846  0.500000      4.000000
  0.384615  0.153846  0.500000      4.000000
  0.461538  0.153846  0.500000      4.000000
 -0.461538  0.153846  0.500000      4.000000
 -0.384615  0.153846  0.500000      4.000000
 -0.307692  0.153846  0.500000      4.000000
 -0.230769  0.153846  0.500000      4.000000
 -0.153846  0.153846  0.500000      2.000000
  0.230769  0.230769  0.500000      2.000000
  0.307692  0.230769  0.500000      4.000000
  0.384615  0.230769  0.500000      4.000000
  0.461538  0.230769  0.500000      4.000000
 -0.461538  0.230769  0.500000      4.000000
 -0.384615  0.230769  0.500000      4.000000
 -0.307692  0.230769  0.500000      4.000000
 -0.230769  0.230769  0.500000      2.000000
  0.307692  0.307692  0.500000      2.000000
  0.384615  0.307692  0.500000      4.000000
  0.461538  0.307692  0.500000      4.000000
 -0.461538  0.307692  0.500000      4.000000
 -0.384615  0.307692  0.500000      4.000000
 -0.307692  0.307692  0.500000      2.000000
  0.384615  0.384615  0.500000      2.000000
  0.461538  0.384615  0.500000      4.000000
 -0.461538  0.384615  0.500000      4.000000
 -0.384615  0.384615  0.500000      2.000000
  0.461538  0.461538  0.500000      2.000000
 -0.461538  0.461538  0.500000      2.000000
 
 Following cartesian coordinates:
            Coordinates               Weight
  0.000000  0.000000  0.000000      1.000000
  0.014164 -0.004645  0.013285      4.000000
  0.028328 -0.009291  0.026570      4.000000
  0.042491 -0.013936  0.039854      4.000000
  0.056655 -0.018581  0.053139      4.000000
  0.070819 -0.023227  0.066424      4.000000
  0.084983 -0.027872  0.079709      4.000000
  0.028328 -0.000000  0.026570      2.000000
  0.042491 -0.004645  0.039854      4.000000
  0.056655 -0.009291  0.053139      4.000000
  0.070819 -0.013936  0.066424      4.000000
  0.084983 -0.018581  0.079709      4.000000
  0.099147 -0.023227  0.092993      4.000000
 -0.070819  0.032517 -0.066424      4.000000
 -0.056655  0.027872 -0.053139      4.000000
 -0.042491  0.023227 -0.039854      4.000000
 -0.028328  0.018581 -0.026570      4.000000
 -0.014164  0.013936 -0.013285      4.000000
  0.000000  0.009291  0.000000      2.000000
  0.056655  0.000000  0.053139      2.000000
  0.070819 -0.004645  0.066424      4.000000
  0.084983 -0.009291  0.079709      4.000000
  0.099147 -0.013936  0.092993      4.000000
  0.113310 -0.018581  0.106278      4.000000
 -0.056655  0.037163 -0.053139      4.000000
 -0.042491  0.032517 -0.039854      4.000000
 -0.028328  0.027872 -0.026570      4.000000
 -0.014164  0.023227 -0.013285      4.000000
  0.000000  0.018581  0.000000      2.000000
  0.084983  0.000000  0.079709      2.000000
  0.099147 -0.004645  0.092993      4.000000
  0.113310 -0.009291  0.106278      4.000000
  0.127474 -0.013936  0.119563      4.000000
 -0.042491  0.041808 -0.039854      4.000000
 -0.028328  0.037163 -0.026570      4.000000
 -0.014164  0.032517 -0.013285      4.000000
  0.000000  0.027872  0.000000      2.000000
  0.113310 -0.000000  0.106278      2.000000
  0.127474 -0.004645  0.119563      4.000000
  0.141638 -0.009291  0.132848      4.000000
 -0.028328  0.046453 -0.026570      4.000000
 -0.014164  0.041808 -0.013285      4.000000
  0.000000  0.037163  0.000000      2.000000
  0.141638  0.000000  0.132848      2.000000
  0.155802 -0.004645  0.146132      4.000000
 -0.014164  0.051099 -0.013285      4.000000
  0.000000  0.046453  0.000000      2.000000
  0.169965  0.000000  0.159417      2.000000
  0.000000  0.055744  0.000000      2.000000
  0.000260 -0.000000  0.020141      2.000000
  0.014424 -0.004645  0.033426      4.000000
  0.028588 -0.009291  0.046711      4.000000
  0.042751 -0.013936  0.059996      4.000000
  0.056915 -0.018581  0.073281      4.000000
  0.071079 -0.023227  0.086565      4.000000
  0.085243 -0.027872  0.099850      4.000000
 -0.084723  0.027872 -0.059567      4.000000
 -0.070559  0.023227 -0.046282      4.000000
 -0.056395  0.018581 -0.032998      4.000000
 -0.042231  0.013936 -0.019713      4.000000
 -0.028068  0.009291 -0.006428      4.000000
 -0.013904  0.004645  0.006857      4.000000
  0.028588 -0.000000  0.046711      2.000000
  0.042751 -0.004645  0.059996      4.000000
  0.056915 -0.009291  0.073281      4.000000
  0.071079 -0.013936  0.086565      4.000000
  0.085243 -0.018581  0.099850      4.000000
  0.099407 -0.023227  0.113135      4.000000
 -0.070559  0.032517 -0.046282      4.000000
 -0.056395  0.027872 -0.032998      4.000000
 -0.042231  0.023227 -0.019713      4.000000
 -0.028068  0.018581 -0.006428      4.000000
 -0.013904  0.013936  0.006857      4.000000
  0.000260  0.009291  0.020141      4.000000
  0.056915  0.000000  0.073281      2.000000
  0.071079 -0.004645  0.086565      4.000000
  0.085243 -0.009291  0.099850      4.000000
  0.099407 -0.013936  0.113135      4.000000
  0.113570 -0.018581  0.126420      4.000000
 -0.056395  0.037163 -0.032998      4.000000
 -0.042231  0.032517 -0.019713      4.000000
 -0.028068  0.027872 -0.006428      4.000000
 -0.013904  0.023227  0.006857      4.000000
  0.000260  0.018581  0.020141      4.000000
  0.014424  0.013936  0.033426      4.000000
  0.085243  0.000000  0.099850      2.000000
  0.099407 -0.004645  0.113135      4.000000
  0.113570 -0.009291  0.126420      4.000000
  0.127734 -0.013936  0.139704      4.000000
 -0.042231  0.041808 -0.019713      4.000000
 -0.028068  0.037163 -0.006428      4.000000
 -0.013904  0.032517  0.006857      4.000000
  0.000260  0.027872  0.020141      4.000000
  0.014424  0.023227  0.033426      4.000000
  0.028588  0.018581  0.046711      4.000000
  0.113570 -0.000000  0.126420      2.000000
  0.127734 -0.004645  0.139704      4.000000
  0.141898 -0.009291  0.152989      4.000000
 -0.028068  0.046453 -0.006428      4.000000
 -0.013904  0.041808  0.006857      4.000000
  0.000260  0.037163  0.020141      4.000000
  0.014424  0.032517  0.033426      4.000000
  0.028588  0.027872  0.046711      4.000000
  0.042751  0.023227  0.059996      4.000000
  0.141898 -0.000000  0.152989      2.000000
  0.156062 -0.004645  0.166274      4.000000
 -0.013904  0.051099  0.006857      4.000000
  0.000260  0.046453  0.020141      4.000000
  0.014424  0.041808  0.033426      4.000000
  0.028588  0.037163  0.046711      4.000000
  0.042751  0.032517  0.059996      4.000000
  0.056915  0.027872  0.073281      4.000000
  0.170226  0.000000  0.179559      2.000000
  0.000260  0.055744  0.020141      4.000000
  0.014424  0.051099  0.033426      4.000000
  0.028588  0.046453  0.046711      4.000000
  0.042751  0.041808  0.059996      4.000000
  0.056915  0.037163  0.073281      4.000000
  0.071079  0.032517  0.086565      4.000000
 -0.169705  0.000000 -0.139276      2.000000
 -0.155542 -0.004645 -0.125991      4.000000
 -0.141378 -0.009291 -0.112706      4.000000
 -0.127214 -0.013936 -0.099421      4.000000
 -0.113050 -0.018581 -0.086137      4.000000
 -0.098886 -0.023227 -0.072852      4.000000
 -0.141378  0.000000 -0.112706      2.000000
 -0.127214 -0.004645 -0.099421      4.000000
 -0.113050 -0.009291 -0.086137      4.000000
 -0.098886 -0.013936 -0.072852      4.000000
 -0.084723 -0.018581 -0.059567      4.000000
 -0.113050  0.000000 -0.086137      2.000000
 -0.098886 -0.004645 -0.072852      4.000000
 -0.084723 -0.009291 -0.059567      4.000000
 -0.070559 -0.013936 -0.046282      4.000000
 -0.084723 -0.000000 -0.059567      2.000000
 -0.070559 -0.004645 -0.046282      4.000000
 -0.056395 -0.009291 -0.032998      4.000000
 -0.056395  0.000000 -0.032998      2.000000
 -0.042231 -0.004645 -0.019713      4.000000
 -0.028068  0.000000 -0.006428      2.000000
  0.000520 -0.000000  0.040283      2.000000
  0.014684 -0.004645  0.053568      4.000000
  0.028848 -0.009291  0.066853      4.000000
  0.043011 -0.013936  0.080137      4.000000
  0.057175 -0.018581  0.093422      4.000000
  0.071339 -0.023227  0.106707      4.000000
  0.085503 -0.027872  0.119992      4.000000
 -0.084463  0.027872 -0.039426      4.000000
 -0.070299  0.023227 -0.026141      4.000000
 -0.056135  0.018581 -0.012856      4.000000
 -0.041971  0.013936  0.000429      4.000000
 -0.027807  0.009291  0.013713      4.000000
 -0.013644  0.004645  0.026998      4.000000
  0.028848 -0.000000  0.066853      2.000000
  0.043011 -0.004645  0.080137      4.000000
  0.057175 -0.009291  0.093422      4.000000
  0.071339 -0.013936  0.106707      4.000000
  0.085503 -0.018581  0.119992      4.000000
  0.099667 -0.023227  0.133276      4.000000
 -0.070299  0.032517 -0.026141      4.000000
 -0.056135  0.027872 -0.012856      4.000000
 -0.041971  0.023227  0.000429      4.000000
 -0.027807  0.018581  0.013713      4.000000
 -0.013644  0.013936  0.026998      4.000000
  0.000520  0.009291  0.040283      4.000000
  0.057175  0.000000  0.093422      2.000000
  0.071339 -0.004645  0.106707      4.000000
  0.085503 -0.009291  0.119992      4.000000
  0.099667 -0.013936  0.133276      4.000000
  0.113830 -0.018581  0.146561      4.000000
 -0.056135  0.037163 -0.012856      4.000000
 -0.041971  0.032517  0.000429      4.000000
 -0.027807  0.027872  0.013713      4.000000
 -0.013644  0.023227  0.026998      4.000000
  0.000520  0.018581  0.040283      4.000000
  0.014684  0.013936  0.053568      4.000000
  0.085503  0.000000  0.119992      2.000000
  0.099667 -0.004645  0.133276      4.000000
  0.113830 -0.009291  0.146561      4.000000
  0.127994 -0.013936  0.159846      4.000000
 -0.041971  0.041808  0.000429      4.000000
 -0.027807  0.037163  0.013713      4.000000
 -0.013644  0.032517  0.026998      4.000000
  0.000520  0.027872  0.040283      4.000000
  0.014684  0.023227  0.053568      4.000000
  0.028848  0.018581  0.066853      4.000000
  0.113830 -0.000000  0.146561      2.000000
  0.127994 -0.004645  0.159846      4.000000
  0.142158 -0.009291  0.173131      4.000000
 -0.027807  0.046453  0.013713      4.000000
 -0.013644  0.041808  0.026998      4.000000
  0.000520  0.037163  0.040283      4.000000
  0.014684  0.032517  0.053568      4.000000
  0.028848  0.027872  0.066853      4.000000
  0.043011  0.023227  0.080137      4.000000
  0.142158  0.000000  0.173131      2.000000
  0.156322 -0.004645  0.186415      4.000000
 -0.013644  0.051099  0.026998      4.000000
  0.000520  0.046453  0.040283      4.000000
  0.014684  0.041808  0.053568      4.000000
  0.028848  0.037163  0.066853      4.000000
  0.043011  0.032517  0.080137      4.000000
  0.057175  0.027872  0.093422      4.000000
  0.170486  0.000000  0.199700      2.000000
  0.000520  0.055744  0.040283      4.000000
  0.014684  0.051099  0.053568      4.000000
  0.028848  0.046453  0.066853      4.000000
  0.043011  0.041808  0.080137      4.000000
  0.057175  0.037163  0.093422      4.000000
  0.071339  0.032517  0.106707      4.000000
 -0.169445  0.000000 -0.119134      2.000000
 -0.155282 -0.004645 -0.105849      4.000000
 -0.141118 -0.009291 -0.092565      4.000000
 -0.126954 -0.013936 -0.079280      4.000000
 -0.112790 -0.018581 -0.065995      4.000000
 -0.098626 -0.023227 -0.052710      4.000000
 -0.141118  0.000000 -0.092565      2.000000
 -0.126954 -0.004645 -0.079280      4.000000
 -0.112790 -0.009291 -0.065995      4.000000
 -0.098626 -0.013936 -0.052710      4.000000
 -0.084463 -0.018581 -0.039426      4.000000
 -0.112790 -0.000000 -0.065995      2.000000
 -0.098626 -0.004645 -0.052710      4.000000
 -0.084463 -0.009291 -0.039426      4.000000
 -0.070299 -0.013936 -0.026141      4.000000
 -0.084463 -0.000000 -0.039426      2.000000
 -0.070299 -0.004645 -0.026141      4.000000
 -0.056135 -0.009291 -0.012856      4.000000
 -0.056135  0.000000 -0.012856      2.000000
 -0.041971 -0.004645  0.000429      4.000000
 -0.027807  0.000000  0.013713      2.000000
  0.000780 -0.000000  0.060424      2.000000
  0.014944 -0.004645  0.073709      4.000000
  0.029108 -0.009291  0.086994      4.000000
  0.043272 -0.013936  0.100279      4.000000
  0.057435 -0.018581  0.113564      4.000000
  0.071599 -0.023227  0.126848      4.000000
  0.085763 -0.027872  0.140133      4.000000
 -0.084203  0.027872 -0.019284      4.000000
 -0.070039  0.023227 -0.005999      4.000000
 -0.055875  0.018581  0.007285      4.000000
 -0.041711  0.013936  0.020570      4.000000
 -0.027547  0.009291  0.033855      4.000000
 -0.013384  0.004645  0.047140      4.000000
  0.029108 -0.000000  0.086994      2.000000
  0.043272 -0.004645  0.100279      4.000000
  0.057435 -0.009291  0.113564      4.000000
  0.071599 -0.013936  0.126848      4.000000
  0.085763 -0.018581  0.140133      4.000000
  0.099927 -0.023227  0.153418      4.000000
 -0.070039  0.032517 -0.005999      4.000000
 -0.055875  0.027872  0.007285      4.000000
 -0.041711  0.023227  0.020570      4.000000
 -0.027547  0.018581  0.033855      4.000000
 -0.013384  0.013936  0.047140      4.000000
  0.000780  0.009291  0.060424      4.000000
  0.057435  0.000000  0.113564      2.000000
  0.071599 -0.004645  0.126848      4.000000
  0.085763 -0.009291  0.140133      4.000000
  0.099927 -0.013936  0.153418      4.000000
  0.114090 -0.018581  0.166703      4.000000
 -0.055875  0.037163  0.007285      4.000000
 -0.041711  0.032517  0.020570      4.000000
 -0.027547  0.027872  0.033855      4.000000
 -0.013384  0.023227  0.047140      4.000000
  0.000780  0.018581  0.060424      4.000000
  0.014944  0.013936  0.073709      4.000000
  0.085763  0.000000  0.140133      2.000000
  0.099927 -0.004645  0.153418      4.000000
  0.114090 -0.009291  0.166703      4.000000
  0.128254 -0.013936  0.179987      4.000000
 -0.041711  0.041808  0.020570      4.000000
 -0.027547  0.037163  0.033855      4.000000
 -0.013384  0.032517  0.047140      4.000000
  0.000780  0.027872  0.060424      4.000000
  0.014944  0.023227  0.073709      4.000000
  0.029108  0.018581  0.086994      4.000000
  0.114090 -0.000000  0.166703      2.000000
  0.128254 -0.004645  0.179987      4.000000
  0.142418 -0.009291  0.193272      4.000000
 -0.027547  0.046453  0.033855      4.000000
 -0.013384  0.041808  0.047140      4.000000
  0.000780  0.037163  0.060424      4.000000
  0.014944  0.032517  0.073709      4.000000
  0.029108  0.027872  0.086994      4.000000
  0.043272  0.023227  0.100279      4.000000
  0.142418  0.000000  0.193272      2.000000
  0.156582 -0.004645  0.206557      4.000000
 -0.013384  0.051099  0.047140      4.000000
  0.000780  0.046453  0.060424      4.000000
  0.014944  0.041808  0.073709      4.000000
  0.029108  0.037163  0.086994      4.000000
  0.043272  0.032517  0.100279      4.000000
  0.057435  0.027872  0.113564      4.000000
  0.170746  0.000000  0.219842      2.000000
  0.000780  0.055744  0.060424      4.000000
  0.014944  0.051099  0.073709      4.000000
  0.029108  0.046453  0.086994      4.000000
  0.043272  0.041808  0.100279      4.000000
  0.057435  0.037163  0.113564      4.000000
  0.071599  0.032517  0.126848      4.000000
 -0.169185  0.000000 -0.098993      2.000000
 -0.155022 -0.004645 -0.085708      4.000000
 -0.140858 -0.009291 -0.072423      4.000000
 -0.126694 -0.013936 -0.059138      4.000000
 -0.112530 -0.018581 -0.045854      4.000000
 -0.098366 -0.023227 -0.032569      4.000000
 -0.140858  0.000000 -0.072423      2.000000
 -0.126694 -0.004645 -0.059138      4.000000
 -0.112530 -0.009291 -0.045854      4.000000
 -0.098366 -0.013936 -0.032569      4.000000
 -0.084203 -0.018581 -0.019284      4.000000
 -0.112530  0.000000 -0.045854      2.000000
 -0.098366 -0.004645 -0.032569      4.000000
 -0.084203 -0.009291 -0.019284      4.000000
 -0.070039 -0.013936 -0.005999      4.000000
 -0.084203 -0.000000 -0.019284      2.000000
 -0.070039 -0.004645 -0.005999      4.000000
 -0.055875 -0.009291  0.007285      4.000000
 -0.055875  0.000000  0.007285      2.000000
 -0.041711 -0.004645  0.020570      4.000000
 -0.027547  0.000000  0.033855      2.000000
  0.001040 -0.000000  0.080566      2.000000
  0.015204 -0.004645  0.093851      4.000000
  0.029368 -0.009291  0.107135      4.000000
  0.043532 -0.013936  0.120420      4.000000
  0.057695 -0.018581  0.133705      4.000000
  0.071859 -0.023227  0.146990      4.000000
  0.086023 -0.027872  0.160275      4.000000
 -0.083943  0.027872  0.000857      4.000000
 -0.069779  0.023227  0.014142      4.000000
 -0.055615  0.018581  0.027427      4.000000
 -0.041451  0.013936  0.040712      4.000000
 -0.027287  0.009291  0.053996      4.000000
 -0.013124  0.004645  0.067281      4.000000
  0.029368 -0.000000  0.107135      2.000000
  0.043532 -0.004645  0.120420      4.000000
  0.057695 -0.009291  0.133705      4.000000
  0.071859 -0.013936  0.146990      4.000000
  0.086023 -0.018581  0.160275      4.000000
  0.100187 -0.023227  0.173559      4.000000
 -0.069779  0.032517  0.014142      4.000000
 -0.055615  0.027872  0.027427      4.000000
 -0.041451  0.023227  0.040712      4.000000
 -0.027287  0.018581  0.053996      4.000000
 -0.013124  0.013936  0.067281      4.000000
  0.001040  0.009291  0.080566      4.000000
  0.057695  0.000000  0.133705      2.000000
  0.071859 -0.004645  0.146990      4.000000
  0.086023 -0.009291  0.160275      4.000000
  0.100187 -0.013936  0.173559      4.000000
  0.114351 -0.018581  0.186844      4.000000
 -0.055615  0.037163  0.027427      4.000000
 -0.041451  0.032517  0.040712      4.000000
 -0.027287  0.027872  0.053996      4.000000
 -0.013124  0.023227  0.067281      4.000000
  0.001040  0.018581  0.080566      4.000000
  0.015204  0.013936  0.093851      4.000000
  0.086023  0.000000  0.160275      2.000000
  0.100187 -0.004645  0.173559      4.000000
  0.114351 -0.009291  0.186844      4.000000
  0.128514 -0.013936  0.200129      4.000000
 -0.041451  0.041808  0.040712      4.000000
 -0.027287  0.037163  0.053996      4.000000
 -0.013124  0.032517  0.067281      4.000000
  0.001040  0.027872  0.080566      4.000000
  0.015204  0.023227  0.093851      4.000000
  0.029368  0.018581  0.107135      4.000000
  0.114351  0.000000  0.186844      2.000000
  0.128514 -0.004645  0.200129      4.000000
  0.142678 -0.009291  0.213414      4.000000
 -0.027287  0.046453  0.053996      4.000000
 -0.013124  0.041808  0.067281      4.000000
  0.001040  0.037163  0.080566      4.000000
  0.015204  0.032517  0.093851      4.000000
  0.029368  0.027872  0.107135      4.000000
  0.043532  0.023227  0.120420      4.000000
  0.142678  0.000000  0.213414      2.000000
  0.156842 -0.004645  0.226698      4.000000
 -0.013124  0.051099  0.067281      4.000000
  0.001040  0.046453  0.080566      4.000000
  0.015204  0.041808  0.093851      4.000000
  0.029368  0.037163  0.107135      4.000000
  0.043532  0.032517  0.120420      4.000000
  0.057695  0.027872  0.133705      4.000000
  0.171006  0.000000  0.239983      2.000000
  0.001040  0.055744  0.080566      4.000000
  0.015204  0.051099  0.093851      4.000000
  0.029368  0.046453  0.107135      4.000000
  0.043532  0.041808  0.120420      4.000000
  0.057695  0.037163  0.133705      4.000000
  0.071859  0.032517  0.146990      4.000000
 -0.168925  0.000000 -0.078851      2.000000
 -0.154761 -0.004645 -0.065566      4.000000
 -0.140598 -0.009291 -0.052282      4.000000
 -0.126434 -0.013936 -0.038997      4.000000
 -0.112270 -0.018581 -0.025712      4.000000
 -0.098106 -0.023227 -0.012427      4.000000
 -0.140598  0.000000 -0.052282      2.000000
 -0.126434 -0.004645 -0.038997      4.000000
 -0.112270 -0.009291 -0.025712      4.000000
 -0.098106 -0.013936 -0.012427      4.000000
 -0.083943 -0.018581  0.000857      4.000000
 -0.112270  0.000000 -0.025712      2.000000
 -0.098106 -0.004645 -0.012427      4.000000
 -0.083943 -0.009291  0.000857      4.000000
 -0.069779 -0.013936  0.014142      4.000000
 -0.083943 -0.000000  0.000857      2.000000
 -0.069779 -0.004645  0.014142      4.000000
 -0.055615 -0.009291  0.027427      4.000000
 -0.055615 -0.000000  0.027427      2.000000
 -0.041451 -0.004645  0.040712      4.000000
 -0.027287 -0.000000  0.053996      2.000000
  0.001300 -0.000000  0.100707      2.000000
  0.015464 -0.004645  0.113992      4.000000
  0.029628 -0.009291  0.127277      4.000000
  0.043792 -0.013936  0.140562      4.000000
  0.057955 -0.018581  0.153847      4.000000
  0.072119 -0.023227  0.167131      4.000000
  0.086283 -0.027872  0.180416      4.000000
 -0.083682  0.027872  0.020999      4.000000
 -0.069519  0.023227  0.034284      4.000000
 -0.055355  0.018581  0.047568      4.000000
 -0.041191  0.013936  0.060853      4.000000
 -0.027027  0.009291  0.074138      4.000000
 -0.012864  0.004645  0.087423      4.000000
  0.029628 -0.000000  0.127277      2.000000
  0.043792 -0.004645  0.140562      4.000000
  0.057955 -0.009291  0.153847      4.000000
  0.072119 -0.013936  0.167131      4.000000
  0.086283 -0.018581  0.180416      4.000000
  0.100447 -0.023227  0.193701      4.000000
 -0.069519  0.032517  0.034284      4.000000
 -0.055355  0.027872  0.047568      4.000000
 -0.041191  0.023227  0.060853      4.000000
 -0.027027  0.018581  0.074138      4.000000
 -0.012864  0.013936  0.087423      4.000000
  0.001300  0.009291  0.100707      4.000000
  0.057955  0.000000  0.153847      2.000000
  0.072119 -0.004645  0.167131      4.000000
  0.086283 -0.009291  0.180416      4.000000
  0.100447 -0.013936  0.193701      4.000000
[...]
  115.672174    0.000008    0.000008    0.000008   -0.000000   -0.000000   -0.000016
  116.300827    0.000007    0.000008    0.000007   -0.000000   -0.000000   -0.000016
  116.929480    0.000007    0.000007    0.000007   -0.000000   -0.000000   -0.000016
  117.558133    0.000007    0.000007    0.000007   -0.000000   -0.000000   -0.000015
  118.186786    0.000007    0.000007    0.000007   -0.000000   -0.000000   -0.000015
  118.815439    0.000007    0.000007    0.000007   -0.000000   -0.000000   -0.000015
  119.444093    0.000006    0.000006    0.000006   -0.000000   -0.000000   -0.000015
  120.072746    0.000006    0.000006    0.000006   -0.000000   -0.000000   -0.000014
  120.701399    0.000006    0.000006    0.000006   -0.000000   -0.000000   -0.000014
  121.330052    0.000006    0.000006    0.000006   -0.000000   -0.000000   -0.000014
  121.958705    0.000006    0.000006    0.000006   -0.000000   -0.000000   -0.000014
  122.587358    0.000006    0.000006    0.000006   -0.000000   -0.000000   -0.000014
  123.216011    0.000005    0.000005    0.000005   -0.000000   -0.000000   -0.000013
  123.844664    0.000005    0.000005    0.000005   -0.000000   -0.000000   -0.000013
  124.473318    0.000005    0.000005    0.000005   -0.000000   -0.000000   -0.000013
  125.101971    0.000005    0.000005    0.000005   -0.000000   -0.000000   -0.000013

  frequency dependent      REAL DIELECTRIC FUNCTION (independent particle, no local field effects) current-current
     E(ev)        X           Y           Z          XY          YZ          ZX
  --------------------------------------------------------------------------------------------------------------
    0.000000    6.739490    6.846080    6.707946   -0.000000   -0.000000   -0.230280
    0.628653    6.812722    6.927518    6.780349   -0.000000   -0.000000   -0.237984
    1.257306    7.052328    7.195831    7.017040   -0.000000   -0.000000   -0.264413
    1.885959    7.526637    7.735237    7.484025   -0.000000   -0.000000   -0.322297
    2.514612    8.419154    8.788987    8.363279   -0.000000   -0.000000   -0.448365
    3.143266   10.078393   10.869229   10.125181   -0.000000   -0.000000   -0.577212
    3.771919   11.523176   12.581720   11.946793   -0.000000   -0.000000    0.029315
    4.400572    9.662952    6.627015    8.587791   -0.000000   -0.000000    1.273205
    5.029225    4.085955    0.773742    3.246458   -0.000000   -0.000000    1.159595
    5.657878    0.608687    0.751793    1.145981    0.000000   -0.000000    0.959099
    6.286531    1.398339    0.444884    2.340156   -0.000000   -0.000000    0.330833
    6.915184    0.066395    0.704530    1.322165    0.000000   -0.000000   -0.086311
    7.543837   -1.168313    0.032459   -1.476951    0.000000    0.000000   -0.279369
    8.172491   -1.358023    0.026464   -1.470259    0.000000    0.000000    0.062385
    8.801144   -0.999046   -0.219388   -0.849152    0.000000    0.000000   -0.188013
    9.429797   -1.108496   -0.044585   -1.017746    0.000000    0.000000   -0.329859
   10.058450   -0.699668    0.191933   -0.720402    0.000000    0.000000   -0.242116
   10.687103   -0.150111   -0.086065   -0.209771    0.000000    0.000000   -0.126518
   11.315756    0.467117    0.324522    0.102397    0.000000    0.000000    0.171147
   11.944409    0.760531    0.356039    0.566183    0.000000    0.000000    0.272530
   12.573062    0.791907    0.744642    0.704071    0.000000    0.000000    0.099236
   13.201715    0.520702    0.507773    0.379902    0.000000    0.000000    0.081352
   13.830369    0.482255    0.077140    0.391924    0.000000    0.000000   -0.032400
   14.459022    0.570402   -0.070629    0.400459    0.000000    0.000000   -0.083974
   15.087675    0.411727    0.043322    0.574665    0.000000    0.000000    0.036132
   15.716328    0.119853    0.134089    0.221282    0.000000    0.000000    0.110566
   16.344981   -0.106555    0.176884   -0.064059    0.000000    0.000000    0.107813
   16.973634   -0.172770    0.110172   -0.202881    0.000000    0.000000    0.103875
   17.602287   -0.055324    0.060970   -0.025289    0.000000    0.000000    0.030968
   18.230940    0.114685    0.074501    0.060426    0.000000    0.000000    0.009446
   18.859594    0.227066    0.146129    0.192408    0.000000    0.000000   -0.054942
   19.488247    0.183257    0.141275    0.235288    0.000000    0.000000    0.003601
   20.116900    0.142081    0.260036    0.169086    0.000000    0.000000   -0.019399
   20.745553    0.138611    0.346423    0.144534    0.000000    0.000000   -0.007997
   21.374206    0.149985    0.133198    0.146789    0.000000    0.000000    0.000395
   22.002859    0.192783    0.221368    0.182597    0.000000    0.000000    0.008091
   22.631512    0.304501    0.322788    0.294800    0.000000    0.000000    0.015454
   23.260165    0.377478    0.434112    0.387983    0.000000    0.000000    0.018967
   23.888819    0.427034    0.530438    0.450128    0.000000    0.000000   -0.004147
   24.517472    0.518680    0.615339    0.540299    0.000000    0.000000    0.010474
   25.146125    0.556163    0.633033    0.587162    0.000000    0.000000    0.011567
   25.774778    0.622632    0.661407    0.632318    0.000000    0.000000    0.023656
   26.403431    0.567261    0.569271    0.550395    0.000000    0.000000    0.024046
   27.032084    0.475094    0.512652    0.477891    0.000000    0.000000    0.014252
   27.660737    0.450738    0.314074    0.453171    0.000000    0.000000   -0.013845
   28.289390    0.247706    0.205089    0.263218    0.000000    0.000000   -0.004039
   28.918043    0.187259    0.170206    0.194140    0.000000    0.000000   -0.016277
   29.546697    0.270808    0.245731    0.277699    0.000000    0.000000   -0.034290
   30.175350    0.325585    0.295227    0.325362    0.000000    0.000000   -0.029681
   30.804003    0.394573    0.360155    0.395695    0.000000    0.000000   -0.020380
   31.432656    0.455276    0.411438    0.451072    0.000000    0.000000   -0.014576
   32.061309    0.513382    0.456975    0.508424    0.000000    0.000000   -0.013446
   32.689962    0.569619    0.535913    0.564616    0.000000    0.000000   -0.012414
   33.318615    0.612717    0.573326    0.608114    0.000000    0.000000   -0.013368
   33.947268    0.613984    0.586116    0.617310    0.000000    0.000000   -0.019454
   34.575922    0.648300    0.615797    0.650425    0.000000    0.000000   -0.000718
   35.204575    0.681674    0.649995    0.685502    0.000000    0.000000    0.008084
   35.833228    0.716617    0.709238    0.727013    0.000000    0.000000    0.001986
   36.461881    0.765379    0.777242    0.776283    0.000000    0.000000   -0.020045
   37.090534    0.763796    0.798403    0.780105    0.000000    0.000000   -0.017807
   37.719187    0.768104    0.811179    0.787494    0.000000    0.000000   -0.003730
   38.347840    0.794205    0.816946    0.813804    0.000000    0.000000   -0.000234
   38.976493    0.817075    0.805728    0.827654    0.000000    0.000000   -0.008261
   39.605146    0.858274    0.811253    0.869355    0.000000    0.000000    0.000491
   40.233800    0.944405    0.890142    0.954921    0.000000    0.000000    0.010347
   40.862453    1.023881    0.923169    1.034007   -0.000000   -0.000000   -0.044041
   41.491106    1.083809    1.077209    1.056617   -0.000000   -0.000000   -0.120991
   42.119759    0.957545    0.950589    0.978710   -0.000000   -0.000000    0.054389
   42.748412    0.747377    0.774293    0.794702    0.000000    0.000000    0.000107
   43.377065    0.597718    0.567278    0.541834    0.000000    0.000000   -0.036522
   44.005718    0.660657    0.627362    0.640705    0.000000    0.000000   -0.012709
   44.634371    0.759137    0.688555    0.760097    0.000000    0.000000    0.026996
   45.263025    0.703578    0.715164    0.707414    0.000000    0.000000   -0.022698
   45.891678    0.650498    0.700470    0.660269    0.000000    0.000000    0.021047
   46.520331    0.617612    0.706268    0.610541    0.000000    0.000000    0.027409
   47.148984    0.580774    0.679369    0.557206    0.000000    0.000000    0.019672
   47.777637    0.568475    0.647090    0.553563    0.000000    0.000000    0.008569
   48.406290    0.556449    0.528885    0.560215    0.000000    0.000000    0.009494
   49.034943    0.538811    0.507467    0.534331    0.000000    0.000000    0.026500
   49.663596    0.587874    0.565088    0.565607    0.000000    0.000000    0.012259
   50.292250    0.569414    0.567957    0.558194    0.000000    0.000000    0.003052
   50.920903    0.517091    0.509080    0.521205    0.000000    0.000000   -0.001076
   51.549556    0.533695    0.529636    0.536668    0.000000    0.000000    0.004388
   52.178209    0.596996    0.598831    0.599313    0.000000    0.000000   -0.000301
   52.806862    0.644402    0.648901    0.645519    0.000000    0.000000   -0.001438
   53.435515    0.677882    0.684992    0.677091    0.000000    0.000000   -0.000139
   54.064168    0.696147    0.697072    0.691137    0.000000    0.000000    0.003069
   54.692821    0.690485    0.683097    0.685104    0.000000    0.000000    0.002579
   55.321474    0.708313    0.707226    0.705646    0.000000    0.000000   -0.000103
   55.950128    0.723424    0.720174    0.719019    0.000000    0.000000   -0.001436
   56.578781    0.737597    0.734982    0.734867    0.000000    0.000000   -0.001173
   57.207434    0.746872    0.739751    0.745260    0.000000    0.000000   -0.000795
   57.836087    0.750485    0.742568    0.750017    0.000000    0.000000    0.000309
   58.464740    0.760521    0.756373    0.760772    0.000000    0.000000    0.001751
   59.093393    0.771068    0.766891    0.769976    0.000000    0.000000    0.000252
   59.722046    0.777803    0.774998    0.778578    0.000000    0.000000    0.000681
   60.350699    0.784881    0.783649    0.785558    0.000000    0.000000    0.001192
   60.979353    0.792784    0.790440    0.793006    0.000000    0.000000    0.001484
   61.608006    0.799089    0.797743    0.799670    0.000000    0.000000    0.001412
   62.236659    0.805426    0.803578    0.806175    0.000000    0.000000    0.001111
   62.865312    0.811884    0.809952    0.813288    0.000000    0.000000    0.000807
   63.493965    0.816487    0.815223    0.816985    0.000000    0.000000    0.000571
   64.122618    0.821130    0.819322    0.819870    0.000000    0.000000    0.001150
   64.751271    0.825515    0.824431    0.825316    0.000000    0.000000    0.000892
   65.379924    0.828333    0.828146    0.826896    0.000000    0.000000   -0.000281
   66.008577    0.831372    0.829978    0.830925    0.000000    0.000000    0.001163
   66.637231    0.836839    0.834932    0.836144    0.000000    0.000000    0.000547
   67.265884    0.839967    0.838595    0.839748    0.000000    0.000000   -0.000350
   67.894537    0.842930    0.841972    0.842650    0.000000    0.000000   -0.000493
   68.523190    0.846751    0.845288    0.846362    0.000000    0.000000   -0.000093
   69.151843    0.850959    0.849955    0.850698    0.000000    0.000000    0.000256
   69.780496    0.855324    0.854350    0.855029    0.000000    0.000000    0.000265
   70.409149    0.859116    0.858191    0.858814    0.000000    0.000000    0.000276
   71.037802    0.862609    0.861730    0.862307    0.000000    0.000000    0.000282
   71.666456    0.865888    0.865052    0.865589    0.000000    0.000000    0.000284
   72.295109    0.868994    0.868196    0.868699    0.000000    0.000000    0.000284
   72.923762    0.871952    0.871189    0.871661    0.000000    0.000000    0.000282
   73.552415    0.874779    0.874048    0.874493    0.000000    0.000000    0.000278
   74.181068    0.877488    0.876787    0.877207    0.000000    0.000000    0.000274
   74.809721    0.880089    0.879415    0.879813    0.000000    0.000000    0.000270
   75.438374    0.882591    0.881942    0.882320    0.000000    0.000000    0.000265
   76.067027    0.884999    0.884374    0.884733    0.000000    0.000000    0.000261
   76.695681    0.887322    0.886719    0.887061    0.000000    0.000000    0.000256
   77.324334    0.889563    0.888981    0.889307    0.000000    0.000000    0.000251
   77.952987    0.891727    0.891165    0.891476    0.000000    0.000000    0.000246
   78.581640    0.893820    0.893276    0.893573    0.000000    0.000000    0.000242
   79.210293    0.895844    0.895317    0.895602    0.000000    0.000000    0.000237
   79.838946    0.897804    0.897293    0.897567    0.000000    0.000000    0.000233
   80.467599    0.899702    0.899207    0.899469    0.000000    0.000000    0.000228
   81.096252    0.901541    0.901061    0.901313    0.000000    0.000000    0.000223
   81.724905    0.903325    0.902859    0.903102    0.000000    0.000000    0.000219
   82.353559    0.905056    0.904604    0.904837    0.000000    0.000000    0.000215
   82.982212    0.906737    0.906297    0.906522    0.000000    0.000000    0.000211
   83.610865    0.908369    0.907941    0.908158    0.000000    0.000000    0.000206
   84.239518    0.909954    0.909539    0.909745    0.000000    0.000000    0.000200
   84.868171    0.911487    0.911092    0.911289    0.000000    0.000000    0.000196
   85.496824    0.912990    0.912602    0.912793    0.000000    0.000000    0.000193
   86.125477    0.914449    0.914069    0.914253    0.000000    0.000000    0.000193
   86.754130    0.915867    0.915500    0.915676    0.000000    0.000000    0.000188
   87.382784    0.917248    0.916889    0.917061    0.000000    0.000000    0.000187
   88.011437    0.918594    0.918240    0.918410    0.000000    0.000000    0.000182
   88.640090    0.919906    0.919559    0.919725    0.000000    0.000000    0.000179
   89.268743    0.921184    0.920843    0.921007    0.000000    0.000000    0.000175
   89.897396    0.922426    0.922093    0.922258    0.000000    0.000000    0.000170
   90.526049    0.923638    0.923309    0.923467    0.000000    0.000000    0.000171
   91.154702    0.924817    0.924500    0.924651    0.000000    0.000000    0.000172
   91.783355    0.925966    0.925662    0.925807    0.000000    0.000000    0.000172
   92.412008    0.927096    0.926793    0.926933    0.000000    0.000000    0.000170
   93.040662    0.928196    0.927899    0.928033    0.000000    0.000000    0.000166
   93.669315    0.929264    0.928979    0.929101    0.000000    0.000000    0.000155
   94.297968    0.930316    0.930029    0.930154    0.000000    0.000000    0.000155
   94.926621    0.931342    0.931062    0.931185    0.000000    0.000000    0.000157
   95.555274    0.932331    0.932065    0.932170    0.000000    0.000000    0.000155
   96.183927    0.933303    0.933028    0.933148    0.000000    0.000000    0.000146
   96.812580    0.934256    0.933989    0.934102    0.000000    0.000000    0.000145
   97.441233    0.935190    0.934927    0.935036    0.000000    0.000000    0.000137
   98.069887    0.936093    0.935845    0.935946    0.000000    0.000000    0.000133
   98.698540    0.936985    0.936738    0.936841    0.000000    0.000000    0.000134
   99.327193    0.937855    0.937614    0.937718    0.000000    0.000000    0.000133
   99.955846    0.938704    0.938470    0.938575    0.000000    0.000000    0.000133
  100.584499    0.939541    0.939314    0.939410    0.000000    0.000000    0.000132
  101.213152    0.940365    0.940137    0.940230    0.000000    0.000000    0.000133
  101.841805    0.941162    0.940940    0.941031    0.000000    0.000000    0.000132
  102.470458    0.941945    0.941733    0.941815    0.000000    0.000000    0.000126
  103.099112    0.942711    0.942503    0.942585    0.000000    0.000000    0.000126
  103.727765    0.943461    0.943252    0.943338    0.000000    0.000000    0.000127
  104.356418    0.944197    0.943988    0.944075    0.000000    0.000000    0.000127
  104.985071    0.944923    0.944719    0.944802    0.000000    0.000000    0.000123
  105.613724    0.945634    0.945434    0.945514    0.000000    0.000000    0.000120
  106.242377    0.946329    0.946133    0.946212    0.000000    0.000000    0.000118
  106.871030    0.947011    0.946818    0.946895    0.000000    0.000000    0.000117
  107.499683    0.947679    0.947488    0.947564    0.000000    0.000000    0.000115
  108.128336    0.948333    0.948146    0.948220    0.000000    0.000000    0.000113
  108.756990    0.948975    0.948791    0.948864    0.000000    0.000000    0.000112
  109.385643    0.949605    0.949424    0.949495    0.000000    0.000000    0.000110
  110.014296    0.950222    0.950044    0.950114    0.000000    0.000000    0.000109
  110.642949    0.950828    0.950653    0.950721    0.000000    0.000000    0.000107
  111.271602    0.951422    0.951250    0.951317    0.000000    0.000000    0.000106
  111.900255    0.952006    0.951836    0.951902    0.000000    0.000000    0.000105
  112.528908    0.952578    0.952411    0.952476    0.000000    0.000000    0.000103
  113.157561    0.953141    0.952976    0.953039    0.000000    0.000000    0.000102
  113.786215    0.953692    0.953530    0.953592    0.000000    0.000000    0.000101
  114.414868    0.954234    0.954074    0.954135    0.000000    0.000000    0.000100
  115.043521    0.954766    0.954609    0.954669    0.000000    0.000000    0.000098
  115.672174    0.955289    0.955134    0.955193    0.000000    0.000000    0.000097
  116.300827    0.955803    0.955649    0.955707    0.000000    0.000000    0.000096
  116.929480    0.956307    0.956156    0.956213    0.000000    0.000000    0.000095
  117.558133    0.956802    0.956654    0.956709    0.000000    0.000000    0.000094
  118.186786    0.957289    0.957143    0.957198    0.000000    0.000000    0.000093
  118.815439    0.957768    0.957623    0.957677    0.000000    0.000000    0.000092
  119.444093    0.958238    0.958096    0.958149    0.000000    0.000000    0.000091
  120.072746    0.958701    0.958560    0.958612    0.000000    0.000000    0.000090
  120.701399    0.959155    0.959016    0.959068    0.000000    0.000000    0.000089
  121.330052    0.959602    0.959465    0.959515    0.000000    0.000000    0.000088
  121.958705    0.960041    0.959906    0.959956    0.000000    0.000000    0.000087
  122.587358    0.960473    0.960340    0.960389    0.000000    0.000000    0.000086
  123.216011    0.960898    0.960767    0.960815    0.000000    0.000000    0.000085
  123.844664    0.961316    0.961187    0.961234    0.000000    0.000000    0.000084
  124.473318    0.961727    0.961599    0.961646    0.000000    0.000000    0.000083
  125.101971    0.962132    0.962006    0.962051    0.000000    0.000000    0.000082
 
 The outermost node in the dielectric function lies at epsilon=  17.7


--------------------------------------------------------------------------------------------------------


    OPTICS:  cpu time    431.2978: real time    431.6791
    4ORBIT:  cpu time      0.0000: real time      0.0000

 total amount of memory used by VASP MPI-rank0  1627837. kBytes
=======================================================================

   base      :      30000. kBytes
   nonl-proj :     822472. kBytes
   fftplans  :       3448. kBytes
   grid      :       7999. kBytes
   one-center:        139. kBytes
   wavefun   :     763779. kBytes
 
  
  
 General timing and accounting informations for this job:
 ========================================================
  
                  Total CPU time used (sec):     3456.007
                            User time (sec):     2569.411
                          System time (sec):      886.595
                         Elapsed time (sec):     3463.630
  
                   Maximum memory used (kb):    21390448.
                   Average memory used (kb):          N/A
  
                          Minor page faults:     23432083
                          Major page faults:            4
                 Voluntary context switches:        70595
