<?xml version="1.0" encoding="ISO-8859-1"?>
<modeling>
 <generator>
  <i name="program" type="string">vasp </i>
  <i name="version" type="string">6.4.2  </i>
  <i name="subversion" type="string">20Jul23 (build Jun 26 2024 13:15:30) complex                          parallel </i>
  <i name="platform" type="string">LinuxNV </i>
  <i name="date" type="string">2025 03 03 </i>
  <i name="time" type="string">17:55:52 </i>
 </generator>
 <incar>
  <i type="string" name="ALGO">Exact</i>
  <i type="int" name="ISPIN">     1</i>
  <i name="EDIFF">      0.00000001</i>
  <i type="int" name="NBANDS">    96</i>
  <i type="int" name="NEDOS">  2000</i>
  <i type="int" name="ISMEAR">     0</i>
  <i name="SIGMA">      0.01000000</i>
  <i type="logical" name="LOPTICS"> T  </i>
  <i name="CSHIFT">      0.15000000</i>
  <i type="logical" name="LPEAD"> T  </i>
 </incar>
 <primitive_cell>
  <structure name="primitive_cell" >
   <crystal>
    <varray name="basis" >
     <v>       2.74877081      -8.27960754      -0.03549010 </v>
     <v>       2.74877081       8.27960754      -0.03549010 </v>
     <v>      -2.61879281      -0.00000000       2.79207531 </v>
    </varray>
    <i name="volume">    125.54921836 </i>
    <varray name="rec_basis" >
     <v>       0.18412928      -0.06038934       0.17270181 </v>
     <v>       0.18412928       0.06038934       0.17270181 </v>
     <v>       0.00468094       0.00000000       0.36254696 </v>
    </varray>
   </crystal>
   <varray name="positions" >
    <v>       0.31160100       0.31160100       0.99361447 </v>
    <v>       0.81867928       0.81867928       0.00622646 </v>
    <v>       0.95022993       0.72501300       0.54905777 </v>
    <v>       0.72501300       0.95022993       0.54905777 </v>
    <v>       0.97443765       0.47907179       0.91780132 </v>
    <v>       0.47907179       0.97443765       0.91780132 </v>
    <v>       0.76477459       0.76477459       0.42849184 </v>
    <v>       0.35318703       0.00706909       0.35351141 </v>
    <v>       0.00706909       0.35318703       0.35351141 </v>
   </varray>
  </structure>
  <varray name="primitive_index" >
   <v type="int" >        1 </v>
   <v type="int" >        2 </v>
   <v type="int" >        3 </v>
   <v type="int" >        4 </v>
   <v type="int" >        5 </v>
   <v type="int" >        6 </v>
   <v type="int" >        7 </v>
   <v type="int" >        8 </v>
   <v type="int" >        9 </v>
  </varray>
 </primitive_cell>
 <kpoints>
  <generation param="Gamma">
   <v type="int" name="divisions">      13       13       18 </v>
   <v name="usershift">      0.00000000       0.00000000       0.00000000 </v>
   <v name="genvec1">      0.07692308       0.00000000       0.00000000 </v>
   <v name="genvec2">     -0.00000000       0.07692308       0.00000000 </v>
   <v name="genvec3">     -0.00000000      -0.00000000       0.05555556 </v>
   <v name="shift">      0.00000000       0.00000000       0.00000000 </v>
  </generation>
  <varray name="kpointlist" >
   <v>       0.00000000       0.00000000       0.00000000 </v>
   <v>       0.07692308       0.00000000       0.00000000 </v>
   <v>       0.15384615       0.00000000       0.00000000 </v>
   <v>       0.23076923       0.00000000       0.00000000 </v>
   <v>       0.30769231       0.00000000       0.00000000 </v>
   <v>       0.38461538       0.00000000       0.00000000 </v>
   <v>       0.46153846       0.00000000       0.00000000 </v>
   <v>       0.07692308       0.07692308       0.00000000 </v>
   <v>       0.15384615       0.07692308       0.00000000 </v>
   <v>       0.23076923       0.07692308       0.00000000 </v>
   <v>       0.30769231       0.07692308       0.00000000 </v>
   <v>       0.38461538       0.07692308       0.00000000 </v>
   <v>       0.46153846       0.07692308       0.00000000 </v>
   <v>      -0.46153846       0.07692308       0.00000000 </v>
   <v>      -0.38461538       0.07692308       0.00000000 </v>
   <v>      -0.30769231       0.07692308       0.00000000 </v>
   <v>      -0.23076923       0.07692308       0.00000000 </v>
   <v>      -0.15384615       0.07692308       0.00000000 </v>
   <v>      -0.07692308       0.07692308       0.00000000 </v>
   <v>       0.15384615       0.15384615       0.00000000 </v>
   <v>       0.23076923       0.15384615       0.00000000 </v>
   <v>       0.30769231       0.15384615       0.00000000 </v>
   <v>       0.38461538       0.15384615       0.00000000 </v>
   <v>       0.46153846       0.15384615       0.00000000 </v>
   <v>      -0.46153846       0.15384615       0.00000000 </v>
   <v>      -0.38461538       0.15384615       0.00000000 </v>
   <v>      -0.30769231       0.15384615       0.00000000 </v>
   <v>      -0.23076923       0.15384615       0.00000000 </v>
   <v>      -0.15384615       0.15384615       0.00000000 </v>
   <v>       0.23076923       0.23076923       0.00000000 </v>
   <v>       0.30769231       0.23076923       0.00000000 </v>
   <v>       0.38461538       0.23076923       0.00000000 </v>
   <v>       0.46153846       0.23076923       0.00000000 </v>
   <v>      -0.46153846       0.23076923       0.00000000 </v>
   <v>      -0.38461538       0.23076923       0.00000000 </v>
   <v>      -0.30769231       0.23076923       0.00000000 </v>
   <v>      -0.23076923       0.23076923       0.00000000 </v>
   <v>       0.30769231       0.30769231       0.00000000 </v>
   <v>       0.38461538       0.30769231       0.00000000 </v>
   <v>       0.46153846       0.30769231       0.00000000 </v>
   <v>      -0.46153846       0.30769231       0.00000000 </v>
   <v>      -0.38461538       0.30769231       0.00000000 </v>
   <v>      -0.30769231       0.30769231       0.00000000 </v>
   <v>       0.38461538       0.38461538       0.00000000 </v>
   <v>       0.46153846       0.38461538       0.00000000 </v>
   <v>      -0.46153846       0.38461538       0.00000000 </v>
   <v>      -0.38461538       0.38461538       0.00000000 </v>
   <v>       0.46153846       0.46153846       0.00000000 </v>
   <v>      -0.46153846       0.46153846       0.00000000 </v>
   <v>       0.00000000       0.00000000       0.05555556 </v>
   <v>       0.07692308       0.00000000       0.05555556 </v>
   <v>       0.15384615       0.00000000       0.05555556 </v>
   <v>       0.23076923       0.00000000       0.05555556 </v>
   <v>       0.30769231       0.00000000       0.05555556 </v>
   <v>       0.38461538       0.00000000       0.05555556 </v>
   <v>       0.46153846       0.00000000       0.05555556 </v>
   <v>      -0.46153846       0.00000000       0.05555556 </v>
   <v>      -0.38461538       0.00000000       0.05555556 </v>
   <v>      -0.30769231       0.00000000       0.05555556 </v>
   <v>      -0.23076923       0.00000000       0.05555556 </v>
   <v>      -0.15384615       0.00000000       0.05555556 </v>
   <v>      -0.07692308       0.00000000       0.05555556 </v>
   <v>       0.07692308       0.07692308       0.05555556 </v>
   <v>       0.15384615       0.07692308       0.05555556 </v>
   <v>       0.23076923       0.07692308       0.05555556 </v>
   <v>       0.30769231       0.07692308       0.05555556 </v>
   <v>       0.38461538       0.07692308       0.05555556 </v>
   <v>       0.46153846       0.07692308       0.05555556 </v>
   <v>      -0.46153846       0.07692308       0.05555556 </v>
   <v>      -0.38461538       0.07692308       0.05555556 </v>
   <v>      -0.30769231       0.07692308       0.05555556 </v>
   <v>      -0.23076923       0.07692308       0.05555556 </v>
   <v>      -0.15384615       0.07692308       0.05555556 </v>
   <v>      -0.07692308       0.07692308       0.05555556 </v>
   <v>       0.15384615       0.15384615       0.05555556 </v>
   <v>       0.23076923       0.15384615       0.05555556 </v>
   <v>       0.30769231       0.15384615       0.05555556 </v>
   <v>       0.38461538       0.15384615       0.05555556 </v>
   <v>       0.46153846       0.15384615       0.05555556 </v>
   <v>      -0.46153846       0.15384615       0.05555556 </v>
   <v>      -0.38461538       0.15384615       0.05555556 </v>
   <v>      -0.30769231       0.15384615       0.05555556 </v>
   <v>      -0.23076923       0.15384615       0.05555556 </v>
   <v>      -0.15384615       0.15384615       0.05555556 </v>
   <v>      -0.07692308       0.15384615       0.05555556 </v>
   <v>       0.23076923       0.23076923       0.05555556 </v>
   <v>       0.30769231       0.23076923       0.05555556 </v>
   <v>       0.38461538       0.23076923       0.05555556 </v>
   <v>       0.46153846       0.23076923       0.05555556 </v>
   <v>      -0.46153846       0.23076923       0.05555556 </v>
   <v>      -0.38461538       0.23076923       0.05555556 </v>
   <v>      -0.30769231       0.23076923       0.05555556 </v>
   <v>      -0.23076923       0.23076923       0.05555556 </v>
   <v>      -0.15384615       0.23076923       0.05555556 </v>
   <v>      -0.07692308       0.23076923       0.05555556 </v>
   <v>       0.30769231       0.30769231       0.05555556 </v>
   <v>       0.38461538       0.30769231       0.05555556 </v>
   <v>       0.46153846       0.30769231       0.05555556 </v>
   <v>      -0.46153846       0.30769231       0.05555556 </v>
   <v>      -0.38461538       0.30769231       0.05555556 </v>
   <v>      -0.30769231       0.30769231       0.05555556 </v>
   <v>      -0.23076923       0.30769231       0.05555556 </v>
   <v>      -0.15384615       0.30769231       0.05555556 </v>
   <v>      -0.07692308       0.30769231       0.05555556 </v>
   <v>       0.38461538       0.38461538       0.05555556 </v>
   <v>       0.46153846       0.38461538       0.05555556 </v>
   <v>      -0.46153846       0.38461538       0.05555556 </v>
   <v>      -0.38461538       0.38461538       0.05555556 </v>
   <v>      -0.30769231       0.38461538       0.05555556 </v>
   <v>      -0.23076923       0.38461538       0.05555556 </v>
   <v>      -0.15384615       0.38461538       0.05555556 </v>
   <v>      -0.07692308       0.38461538       0.05555556 </v>
   <v>       0.46153846       0.46153846       0.05555556 </v>
   <v>      -0.46153846       0.46153846       0.05555556 </v>
   <v>      -0.38461538       0.46153846       0.05555556 </v>
   <v>      -0.30769231       0.46153846       0.05555556 </v>
   <v>      -0.23076923       0.46153846       0.05555556 </v>
   <v>      -0.15384615       0.46153846       0.05555556 </v>
   <v>      -0.07692308       0.46153846       0.05555556 </v>
   <v>      -0.46153846      -0.46153846       0.05555556 </v>
   <v>      -0.38461538      -0.46153846       0.05555556 </v>
   <v>      -0.30769231      -0.46153846       0.05555556 </v>
   <v>      -0.23076923      -0.46153846       0.05555556 </v>
   <v>      -0.15384615      -0.46153846       0.05555556 </v>
   <v>      -0.07692308      -0.46153846       0.05555556 </v>
   <v>      -0.38461538      -0.38461538       0.05555556 </v>
   <v>      -0.30769231      -0.38461538       0.05555556 </v>
   <v>      -0.23076923      -0.38461538       0.05555556 </v>
   <v>      -0.15384615      -0.38461538       0.05555556 </v>
   <v>      -0.07692308      -0.38461538       0.05555556 </v>
   <v>      -0.30769231      -0.30769231       0.05555556 </v>
   <v>      -0.23076923      -0.30769231       0.05555556 </v>
   <v>      -0.15384615      -0.30769231       0.05555556 </v>
   <v>      -0.07692308      -0.30769231       0.05555556 </v>
   <v>      -0.23076923      -0.23076923       0.05555556 </v>
   <v>      -0.15384615      -0.23076923       0.05555556 </v>
   <v>      -0.07692308      -0.23076923       0.05555556 </v>
   <v>      -0.15384615      -0.15384615       0.05555556 </v>
   <v>      -0.07692308      -0.15384615       0.05555556 </v>
   <v>      -0.07692308      -0.07692308       0.05555556 </v>
   <v>       0.00000000       0.00000000       0.11111111 </v>
   <v>       0.07692308       0.00000000       0.11111111 </v>
   <v>       0.15384615       0.00000000       0.11111111 </v>
   <v>       0.23076923       0.00000000       0.11111111 </v>
   <v>       0.30769231       0.00000000       0.11111111 </v>
   <v>       0.38461538       0.00000000       0.11111111 </v>
   <v>       0.46153846       0.00000000       0.11111111 </v>
   <v>      -0.46153846       0.00000000       0.11111111 </v>
   <v>      -0.38461538       0.00000000       0.11111111 </v>
   <v>      -0.30769231       0.00000000       0.11111111 </v>
   <v>      -0.23076923       0.00000000       0.11111111 </v>
   <v>      -0.15384615       0.00000000       0.11111111 </v>
   <v>      -0.07692308       0.00000000       0.11111111 </v>
   <v>       0.07692308       0.07692308       0.11111111 </v>
   <v>       0.15384615       0.07692308       0.11111111 </v>
   <v>       0.23076923       0.07692308       0.11111111 </v>
   <v>       0.30769231       0.07692308       0.11111111 </v>
   <v>       0.38461538       0.07692308       0.11111111 </v>
   <v>       0.46153846       0.07692308       0.11111111 </v>
   <v>      -0.46153846       0.07692308       0.11111111 </v>
   <v>      -0.38461538       0.07692308       0.11111111 </v>
   <v>      -0.30769231       0.07692308       0.11111111 </v>
   <v>      -0.23076923       0.07692308       0.11111111 </v>
   <v>      -0.15384615       0.07692308       0.11111111 </v>
   <v>      -0.07692308       0.07692308       0.11111111 </v>
   <v>       0.15384615       0.15384615       0.11111111 </v>
   <v>       0.23076923       0.15384615       0.11111111 </v>
   <v>       0.30769231       0.15384615       0.11111111 </v>
   <v>       0.38461538       0.15384615       0.11111111 </v>
   <v>       0.46153846       0.15384615       0.11111111 </v>
   <v>      -0.46153846       0.15384615       0.11111111 </v>
   <v>      -0.38461538       0.15384615       0.11111111 </v>
   <v>      -0.30769231       0.15384615       0.11111111 </v>
   <v>      -0.23076923       0.15384615       0.11111111 </v>
   <v>      -0.15384615       0.15384615       0.11111111 </v>
   <v>      -0.07692308       0.15384615       0.11111111 </v>
   <v>       0.23076923       0.23076923       0.11111111 </v>
   <v>       0.30769231       0.23076923       0.11111111 </v>
   <v>       0.38461538       0.23076923       0.11111111 </v>
   <v>       0.46153846       0.23076923       0.11111111 </v>
   <v>      -0.46153846       0.23076923       0.11111111 </v>
   <v>      -0.38461538       0.23076923       0.11111111 </v>
   <v>      -0.30769231       0.23076923       0.11111111 </v>
   <v>      -0.23076923       0.23076923       0.11111111 </v>
   <v>      -0.15384615       0.23076923       0.11111111 </v>
   <v>      -0.07692308       0.23076923       0.11111111 </v>
   <v>       0.30769231       0.30769231       0.11111111 </v>
   <v>       0.38461538       0.30769231       0.11111111 </v>
   <v>       0.46153846       0.30769231       0.11111111 </v>
   <v>      -0.46153846       0.30769231       0.11111111 </v>
   <v>      -0.38461538       0.30769231       0.11111111 </v>
   <v>      -0.30769231       0.30769231       0.11111111 </v>
   <v>      -0.23076923       0.30769231       0.11111111 </v>
   <v>      -0.15384615       0.30769231       0.11111111 </v>
   <v>      -0.07692308       0.30769231       0.11111111 </v>
   <v>       0.38461538       0.38461538       0.11111111 </v>
   <v>       0.46153846       0.38461538       0.11111111 </v>
   <v>      -0.46153846       0.38461538       0.11111111 </v>
   <v>      -0.38461538       0.38461538       0.11111111 </v>
   <v>      -0.30769231       0.38461538       0.11111111 </v>
   <v>      -0.23076923       0.38461538       0.11111111 </v>
   <v>      -0.15384615       0.38461538       0.11111111 </v>
   <v>      -0.07692308       0.38461538       0.11111111 </v>
   <v>       0.46153846       0.46153846       0.11111111 </v>
   <v>      -0.46153846       0.46153846       0.11111111 </v>
   <v>      -0.38461538       0.46153846       0.11111111 </v>
   <v>      -0.30769231       0.46153846       0.11111111 </v>
   <v>      -0.23076923       0.46153846       0.11111111 </v>
   <v>      -0.15384615       0.46153846       0.11111111 </v>
   <v>      -0.07692308       0.46153846       0.11111111 </v>
   <v>      -0.46153846      -0.46153846       0.11111111 </v>
   <v>      -0.38461538      -0.46153846       0.11111111 </v>
   <v>      -0.30769231      -0.46153846       0.11111111 </v>
   <v>      -0.23076923      -0.46153846       0.11111111 </v>
   <v>      -0.15384615      -0.46153846       0.11111111 </v>
   <v>      -0.07692308      -0.46153846       0.11111111 </v>
   <v>      -0.38461538      -0.38461538       0.11111111 </v>
   <v>      -0.30769231      -0.38461538       0.11111111 </v>
   <v>      -0.23076923      -0.38461538       0.11111111 </v>
   <v>      -0.15384615      -0.38461538       0.11111111 </v>
   <v>      -0.07692308      -0.38461538       0.11111111 </v>
   <v>      -0.30769231      -0.30769231       0.11111111 </v>
   <v>      -0.23076923      -0.30769231       0.11111111 </v>
   <v>      -0.15384615      -0.30769231       0.11111111 </v>
   <v>      -0.07692308      -0.30769231       0.11111111 </v>
   <v>      -0.23076923      -0.23076923       0.11111111 </v>
   <v>      -0.15384615      -0.23076923       0.11111111 </v>
   <v>      -0.07692308      -0.23076923       0.11111111 </v>
   <v>      -0.15384615      -0.15384615       0.11111111 </v>
   <v>      -0.07692308      -0.15384615       0.11111111 </v>
   <v>      -0.07692308      -0.07692308       0.11111111 </v>
   <v>       0.00000000       0.00000000       0.16666667 </v>
   <v>       0.07692308       0.00000000       0.16666667 </v>
   <v>       0.15384615       0.00000000       0.16666667 </v>
   <v>       0.23076923       0.00000000       0.16666667 </v>
   <v>       0.30769231       0.00000000       0.16666667 </v>
   <v>       0.38461538       0.00000000       0.16666667 </v>
   <v>       0.46153846       0.00000000       0.16666667 </v>
   <v>      -0.46153846       0.00000000       0.16666667 </v>
   <v>      -0.38461538       0.00000000       0.16666667 </v>
   <v>      -0.30769231       0.00000000       0.16666667 </v>
   <v>      -0.23076923       0.00000000       0.16666667 </v>
   <v>      -0.15384615       0.00000000       0.16666667 </v>
   <v>      -0.07692308       0.00000000       0.16666667 </v>
   <v>       0.07692308       0.07692308       0.16666667 </v>
   <v>       0.15384615       0.07692308       0.16666667 </v>
   <v>       0.23076923       0.07692308       0.16666667 </v>
   <v>       0.30769231       0.07692308       0.16666667 </v>
   <v>       0.38461538       0.07692308       0.16666667 </v>
   <v>       0.46153846       0.07692308       0.16666667 </v>
   <v>      -0.46153846       0.07692308       0.16666667 </v>
   <v>      -0.38461538       0.07692308       0.16666667 </v>
   <v>      -0.30769231       0.07692308       0.16666667 </v>
   <v>      -0.23076923       0.07692308       0.16666667 </v>
   <v>      -0.15384615       0.07692308       0.16666667 </v>
   <v>      -0.07692308       0.07692308       0.16666667 </v>
   <v>       0.15384615       0.15384615       0.16666667 </v>
   <v>       0.23076923       0.15384615       0.16666667 </v>
   <v>       0.30769231       0.15384615       0.16666667 </v>
   <v>       0.38461538       0.15384615       0.16666667 </v>
   <v>       0.46153846       0.15384615       0.16666667 </v>
   <v>      -0.46153846       0.15384615       0.16666667 </v>
   <v>      -0.38461538       0.15384615       0.16666667 </v>
   <v>      -0.30769231       0.15384615       0.16666667 </v>
   <v>      -0.23076923       0.15384615       0.16666667 </v>
   <v>      -0.15384615       0.15384615       0.16666667 </v>
   <v>      -0.07692308       0.15384615       0.16666667 </v>
   <v>       0.23076923       0.23076923       0.16666667 </v>
   <v>       0.30769231       0.23076923       0.16666667 </v>
   <v>       0.38461538       0.23076923       0.16666667 </v>
   <v>       0.46153846       0.23076923       0.16666667 </v>
   <v>      -0.46153846       0.23076923       0.16666667 </v>
   <v>      -0.38461538       0.23076923       0.16666667 </v>
   <v>      -0.30769231       0.23076923       0.16666667 </v>
   <v>      -0.23076923       0.23076923       0.16666667 </v>
   <v>      -0.15384615       0.23076923       0.16666667 </v>
   <v>      -0.07692308       0.23076923       0.16666667 </v>
   <v>       0.30769231       0.30769231       0.16666667 </v>
   <v>       0.38461538       0.30769231       0.16666667 </v>
   <v>       0.46153846       0.30769231       0.16666667 </v>
   <v>      -0.46153846       0.30769231       0.16666667 </v>
   <v>      -0.38461538       0.30769231       0.16666667 </v>
   <v>      -0.30769231       0.30769231       0.16666667 </v>
   <v>      -0.23076923       0.30769231       0.16666667 </v>
   <v>      -0.15384615       0.30769231       0.16666667 </v>
   <v>      -0.07692308       0.30769231       0.16666667 </v>
   <v>       0.38461538       0.38461538       0.16666667 </v>
   <v>       0.46153846       0.38461538       0.16666667 </v>
   <v>      -0.46153846       0.38461538       0.16666667 </v>
   <v>      -0.38461538       0.38461538       0.16666667 </v>
   <v>      -0.30769231       0.38461538       0.16666667 </v>
   <v>      -0.23076923       0.38461538       0.16666667 </v>
   <v>      -0.15384615       0.38461538       0.16666667 </v>
   <v>      -0.07692308       0.38461538       0.16666667 </v>
   <v>       0.46153846       0.46153846       0.16666667 </v>
   <v>      -0.46153846       0.46153846       0.16666667 </v>
   <v>      -0.38461538       0.46153846       0.16666667 </v>
   <v>      -0.30769231       0.46153846       0.16666667 </v>
   <v>      -0.23076923       0.46153846       0.16666667 </v>
   <v>      -0.15384615       0.46153846       0.16666667 </v>
   <v>      -0.07692308       0.46153846       0.16666667 </v>
   <v>      -0.46153846      -0.46153846       0.16666667 </v>
   <v>      -0.38461538      -0.46153846       0.16666667 </v>
   <v>      -0.30769231      -0.46153846       0.16666667 </v>
   <v>      -0.23076923      -0.46153846       0.16666667 </v>
   <v>      -0.15384615      -0.46153846       0.16666667 </v>
   <v>      -0.07692308      -0.46153846       0.16666667 </v>
   <v>      -0.38461538      -0.38461538       0.16666667 </v>
   <v>      -0.30769231      -0.38461538       0.16666667 </v>
   <v>      -0.23076923      -0.38461538       0.16666667 </v>
   <v>      -0.15384615      -0.38461538       0.16666667 </v>
   <v>      -0.07692308      -0.38461538       0.16666667 </v>
   <v>      -0.30769231      -0.30769231       0.16666667 </v>
   <v>      -0.23076923      -0.30769231       0.16666667 </v>
   <v>      -0.15384615      -0.30769231       0.16666667 </v>
   <v>      -0.07692308      -0.30769231       0.16666667 </v>
   <v>      -0.23076923      -0.23076923       0.16666667 </v>
   <v>      -0.15384615      -0.23076923       0.16666667 </v>
   <v>      -0.07692308      -0.23076923       0.16666667 </v>
   <v>      -0.15384615      -0.15384615       0.16666667 </v>
   <v>      -0.07692308      -0.15384615       0.16666667 </v>
   <v>      -0.07692308      -0.07692308       0.16666667 </v>
   <v>       0.00000000       0.00000000       0.22222222 </v>
   <v>       0.07692308       0.00000000       0.22222222 </v>
   <v>       0.15384615       0.00000000       0.22222222 </v>
   <v>       0.23076923       0.00000000       0.22222222 </v>
   <v>       0.30769231       0.00000000       0.22222222 </v>
   <v>       0.38461538       0.00000000       0.22222222 </v>
   <v>       0.46153846       0.00000000       0.22222222 </v>
   <v>      -0.46153846       0.00000000       0.22222222 </v>
   <v>      -0.38461538       0.00000000       0.22222222 </v>
   <v>      -0.30769231       0.00000000       0.22222222 </v>
   <v>      -0.23076923       0.00000000       0.22222222 </v>
   <v>      -0.15384615       0.00000000       0.22222222 </v>
   <v>      -0.07692308       0.00000000       0.22222222 </v>
   <v>       0.07692308       0.07692308       0.22222222 </v>
   <v>       0.15384615       0.07692308       0.22222222 </v>
   <v>       0.23076923       0.07692308       0.22222222 </v>
   <v>       0.30769231       0.07692308       0.22222222 </v>
   <v>       0.38461538       0.07692308       0.22222222 </v>
   <v>       0.46153846       0.07692308       0.22222222 </v>
   <v>      -0.46153846       0.07692308       0.22222222 </v>
   <v>      -0.38461538       0.07692308       0.22222222 </v>
   <v>      -0.30769231       0.07692308       0.22222222 </v>
   <v>      -0.23076923       0.07692308       0.22222222 </v>
   <v>      -0.15384615       0.07692308       0.22222222 </v>
   <v>      -0.07692308       0.07692308       0.22222222 </v>
   <v>       0.15384615       0.15384615       0.22222222 </v>
   <v>       0.23076923       0.15384615       0.22222222 </v>
   <v>       0.30769231       0.15384615       0.22222222 </v>
   <v>       0.38461538       0.15384615       0.22222222 </v>
   <v>       0.46153846       0.15384615       0.22222222 </v>
   <v>      -0.46153846       0.15384615       0.22222222 </v>
   <v>      -0.38461538       0.15384615       0.22222222 </v>
   <v>      -0.30769231       0.15384615       0.22222222 </v>
   <v>      -0.23076923       0.15384615       0.22222222 </v>
   <v>      -0.15384615       0.15384615       0.22222222 </v>
   <v>      -0.07692308       0.15384615       0.22222222 </v>
   <v>       0.23076923       0.23076923       0.22222222 </v>
   <v>       0.30769231       0.23076923       0.22222222 </v>
   <v>       0.38461538       0.23076923       0.22222222 </v>
   <v>       0.46153846       0.23076923       0.22222222 </v>
   <v>      -0.46153846       0.23076923       0.22222222 </v>
   <v>      -0.38461538       0.23076923       0.22222222 </v>
   <v>      -0.30769231       0.23076923       0.22222222 </v>
   <v>      -0.23076923       0.23076923       0.22222222 </v>
   <v>      -0.15384615       0.23076923       0.22222222 </v>
   <v>      -0.07692308       0.23076923       0.22222222 </v>
   <v>       0.30769231       0.30769231       0.22222222 </v>
   <v>       0.38461538       0.30769231       0.22222222 </v>
   <v>       0.46153846       0.30769231       0.22222222 </v>
   <v>      -0.46153846       0.30769231       0.22222222 </v>
   <v>      -0.38461538       0.30769231       0.22222222 </v>
   <v>      -0.30769231       0.30769231       0.22222222 </v>
   <v>      -0.23076923       0.30769231       0.22222222 </v>
   <v>      -0.15384615       0.30769231       0.22222222 </v>
   <v>      -0.07692308       0.30769231       0.22222222 </v>
   <v>       0.38461538       0.38461538       0.22222222 </v>
   <v>       0.46153846       0.38461538       0.22222222 </v>
   <v>      -0.46153846       0.38461538       0.22222222 </v>
   <v>      -0.38461538       0.38461538       0.22222222 </v>
   <v>      -0.30769231       0.38461538       0.22222222 </v>
   <v>      -0.23076923       0.38461538       0.22222222 </v>
   <v>      -0.15384615       0.38461538       0.22222222 </v>
   <v>      -0.07692308       0.38461538       0.22222222 </v>
   <v>       0.46153846       0.46153846       0.22222222 </v>
   <v>      -0.46153846       0.46153846       0.22222222 </v>
   <v>      -0.38461538       0.46153846       0.22222222 </v>
   <v>      -0.30769231       0.46153846       0.22222222 </v>
   <v>      -0.23076923       0.46153846       0.22222222 </v>
   <v>      -0.15384615       0.46153846       0.22222222 </v>
   <v>      -0.07692308       0.46153846       0.22222222 </v>
   <v>      -0.46153846      -0.46153846       0.22222222 </v>
   <v>      -0.38461538      -0.46153846       0.22222222 </v>
   <v>      -0.30769231      -0.46153846       0.22222222 </v>
   <v>      -0.23076923      -0.46153846       0.22222222 </v>
   <v>      -0.15384615      -0.46153846       0.22222222 </v>
   <v>      -0.07692308      -0.46153846       0.22222222 </v>
   <v>      -0.38461538      -0.38461538       0.22222222 </v>
   <v>      -0.30769231      -0.38461538       0.22222222 </v>
   <v>      -0.23076923      -0.38461538       0.22222222 </v>
   <v>      -0.15384615      -0.38461538       0.22222222 </v>
   <v>      -0.07692308      -0.38461538       0.22222222 </v>
   <v>      -0.30769231      -0.30769231       0.22222222 </v>
   <v>      -0.23076923      -0.30769231       0.22222222 </v>
   <v>      -0.15384615      -0.30769231       0.22222222 </v>
   <v>      -0.07692308      -0.30769231       0.22222222 </v>
   <v>      -0.23076923      -0.23076923       0.22222222 </v>
   <v>      -0.15384615      -0.23076923       0.22222222 </v>
   <v>      -0.07692308      -0.23076923       0.22222222 </v>
   <v>      -0.15384615      -0.15384615       0.22222222 </v>
   <v>      -0.07692308      -0.15384615       0.22222222 </v>
   <v>      -0.07692308      -0.07692308       0.22222222 </v>
   <v>       0.00000000       0.00000000       0.27777778 </v>
   <v>       0.07692308       0.00000000       0.27777778 </v>
   <v>       0.15384615       0.00000000       0.27777778 </v>
   <v>       0.23076923       0.00000000       0.27777778 </v>
   <v>       0.30769231       0.00000000       0.27777778 </v>
   <v>       0.38461538       0.00000000       0.27777778 </v>
   <v>       0.46153846       0.00000000       0.27777778 </v>
   <v>      -0.46153846       0.00000000       0.27777778 </v>
   <v>      -0.38461538       0.00000000       0.27777778 </v>
   <v>      -0.30769231       0.00000000       0.27777778 </v>
   <v>      -0.23076923       0.00000000       0.27777778 </v>
   <v>      -0.15384615       0.00000000       0.27777778 </v>
   <v>      -0.07692308       0.00000000       0.27777778 </v>
   <v>       0.07692308       0.07692308       0.27777778 </v>
   <v>       0.15384615       0.07692308       0.27777778 </v>
   <v>       0.23076923       0.07692308       0.27777778 </v>
   <v>       0.30769231       0.07692308       0.27777778 </v>
   <v>       0.38461538       0.07692308       0.27777778 </v>
   <v>       0.46153846       0.07692308       0.27777778 </v>
   <v>      -0.46153846       0.07692308       0.27777778 </v>
   <v>      -0.38461538       0.07692308       0.27777778 </v>
   <v>      -0.30769231       0.07692308       0.27777778 </v>
   <v>      -0.23076923       0.07692308       0.27777778 </v>
   <v>      -0.15384615       0.07692308       0.27777778 </v>
   <v>      -0.07692308       0.07692308       0.27777778 </v>
   <v>       0.15384615       0.15384615       0.27777778 </v>
   <v>       0.23076923       0.15384615       0.27777778 </v>
   <v>       0.30769231       0.15384615       0.27777778 </v>
   <v>       0.38461538       0.15384615       0.27777778 </v>
   <v>       0.46153846       0.15384615       0.27777778 </v>
   <v>      -0.46153846       0.15384615       0.27777778 </v>
   <v>      -0.38461538       0.15384615       0.27777778 </v>
   <v>      -0.30769231       0.15384615       0.27777778 </v>
   <v>      -0.23076923       0.15384615       0.27777778 </v>
   <v>      -0.15384615       0.15384615       0.27777778 </v>
   <v>      -0.07692308       0.15384615       0.27777778 </v>
   <v>       0.23076923       0.23076923       0.27777778 </v>
   <v>       0.30769231       0.23076923       0.27777778 </v>
   <v>       0.38461538       0.23076923       0.27777778 </v>
   <v>       0.46153846       0.23076923       0.27777778 </v>
   <v>      -0.46153846       0.23076923       0.27777778 </v>
   <v>      -0.38461538       0.23076923       0.27777778 </v>
   <v>      -0.30769231       0.23076923       0.27777778 </v>
   <v>      -0.23076923       0.23076923       0.27777778 </v>
   <v>      -0.15384615       0.23076923       0.27777778 </v>
   <v>      -0.07692308       0.23076923       0.27777778 </v>
   <v>       0.30769231       0.30769231       0.27777778 </v>
   <v>       0.38461538       0.30769231       0.27777778 </v>
   <v>       0.46153846       0.30769231       0.27777778 </v>
   <v>      -0.46153846       0.30769231       0.27777778 </v>
   <v>      -0.38461538       0.30769231       0.27777778 </v>
   <v>      -0.30769231       0.30769231       0.27777778 </v>
   <v>      -0.23076923       0.30769231       0.27777778 </v>
   <v>      -0.15384615       0.30769231       0.27777778 </v>
   <v>      -0.07692308       0.30769231       0.27777778 </v>
   <v>       0.38461538       0.38461538       0.27777778 </v>
   <v>       0.46153846       0.38461538       0.27777778 </v>
   <v>      -0.46153846       0.38461538       0.27777778 </v>
   <v>      -0.38461538       0.38461538       0.27777778 </v>
   <v>      -0.30769231       0.38461538       0.27777778 </v>
   <v>      -0.23076923       0.38461538       0.27777778 </v>
   <v>      -0.15384615       0.38461538       0.27777778 </v>
   <v>      -0.07692308       0.38461538       0.27777778 </v>
   <v>       0.46153846       0.46153846       0.27777778 </v>
   <v>      -0.46153846       0.46153846       0.27777778 </v>
   <v>      -0.38461538       0.46153846       0.27777778 </v>
   <v>      -0.30769231       0.46153846       0.27777778 </v>
   <v>      -0.23076923       0.46153846       0.27777778 </v>
   <v>      -0.15384615       0.46153846       0.27777778 </v>
   <v>      -0.07692308       0.46153846       0.27777778 </v>
   <v>      -0.46153846      -0.46153846       0.27777778 </v>
   <v>      -0.38461538      -0.46153846       0.27777778 </v>
   <v>      -0.30769231      -0.46153846       0.27777778 </v>
   <v>      -0.23076923      -0.46153846       0.27777778 </v>
   <v>      -0.15384615      -0.46153846       0.27777778 </v>
   <v>      -0.07692308      -0.46153846       0.27777778 </v>
   <v>      -0.38461538      -0.38461538       0.27777778 </v>
   <v>      -0.30769231      -0.38461538       0.27777778 </v>
   <v>      -0.23076923      -0.38461538       0.27777778 </v>
   <v>      -0.15384615      -0.38461538       0.27777778 </v>
   <v>      -0.07692308      -0.38461538       0.27777778 </v>
   <v>      -0.30769231      -0.30769231       0.27777778 </v>
   <v>      -0.23076923      -0.30769231       0.27777778 </v>
   <v>      -0.15384615      -0.30769231       0.27777778 </v>
   <v>      -0.07692308      -0.30769231       0.27777778 </v>
   <v>      -0.23076923      -0.23076923       0.27777778 </v>
   <v>      -0.15384615      -0.23076923       0.27777778 </v>
   <v>      -0.07692308      -0.23076923       0.27777778 </v>
   <v>      -0.15384615      -0.15384615       0.27777778 </v>
   <v>      -0.07692308      -0.15384615       0.27777778 </v>
   <v>      -0.07692308      -0.07692308       0.27777778 </v>
   <v>       0.00000000       0.00000000       0.33333333 </v>
   <v>       0.07692308       0.00000000       0.33333333 </v>
   <v>       0.15384615       0.00000000       0.33333333 </v>
   <v>       0.23076923       0.00000000       0.33333333 </v>
   <v>       0.30769231       0.00000000       0.33333333 </v>
   <v>       0.38461538       0.00000000       0.33333333 </v>
   <v>       0.46153846       0.00000000       0.33333333 </v>
   <v>      -0.46153846       0.00000000       0.33333333 </v>
   <v>      -0.38461538       0.00000000       0.33333333 </v>
   <v>      -0.30769231       0.00000000       0.33333333 </v>
   <v>      -0.23076923       0.00000000       0.33333333 </v>
   <v>      -0.15384615       0.00000000       0.33333333 </v>
   <v>      -0.07692308       0.00000000       0.33333333 </v>
   <v>       0.07692308       0.07692308       0.33333333 </v>
   <v>       0.15384615       0.07692308       0.33333333 </v>
   <v>       0.23076923       0.07692308       0.33333333 </v>
   <v>       0.30769231       0.07692308       0.33333333 </v>
   <v>       0.38461538       0.07692308       0.33333333 </v>
   <v>       0.46153846       0.07692308       0.33333333 </v>
   <v>      -0.46153846       0.07692308       0.33333333 </v>
   <v>      -0.38461538       0.07692308       0.33333333 </v>
   <v>      -0.30769231       0.07692308       0.33333333 </v>
   <v>      -0.23076923       0.07692308       0.33333333 </v>
   <v>      -0.15384615       0.07692308       0.33333333 </v>
   <v>      -0.07692308       0.07692308       0.33333333 </v>
   <v>       0.15384615       0.15384615       0.33333333 </v>
   <v>       0.23076923       0.15384615       0.33333333 </v>
   <v>       0.30769231       0.15384615       0.33333333 </v>
   <v>       0.38461538       0.15384615       0.33333333 </v>
   <v>       0.46153846       0.15384615       0.33333333 </v>
   <v>      -0.46153846       0.15384615       0.33333333 </v>
   <v>      -0.38461538       0.15384615       0.33333333 </v>
   <v>      -0.30769231       0.15384615       0.33333333 </v>
   <v>      -0.23076923       0.15384615       0.33333333 </v>
   <v>      -0.15384615       0.15384615       0.33333333 </v>
   <v>      -0.07692308       0.15384615       0.33333333 </v>
   <v>       0.23076923       0.23076923       0.33333333 </v>
   <v>       0.30769231       0.23076923       0.33333333 </v>
   <v>       0.38461538       0.23076923       0.33333333 </v>
   <v>       0.46153846       0.23076923       0.33333333 </v>
   <v>      -0.46153846       0.23076923       0.33333333 </v>
   <v>      -0.38461538       0.23076923       0.33333333 </v>
   <v>      -0.30769231       0.23076923       0.33333333 </v>
   <v>      -0.23076923       0.23076923       0.33333333 </v>
   <v>      -0.15384615       0.23076923       0.33333333 </v>
   <v>      -0.07692308       0.23076923       0.33333333 </v>
   <v>       0.30769231       0.30769231       0.33333333 </v>
   <v>       0.38461538       0.30769231       0.33333333 </v>
   <v>       0.46153846       0.30769231       0.33333333 </v>
   <v>      -0.46153846       0.30769231       0.33333333 </v>
   <v>      -0.38461538       0.30769231       0.33333333 </v>
   <v>      -0.30769231       0.30769231       0.33333333 </v>
   <v>      -0.23076923       0.30769231       0.33333333 </v>
   <v>      -0.15384615       0.30769231       0.33333333 </v>
   <v>      -0.07692308       0.30769231       0.33333333 </v>
   <v>       0.38461538       0.38461538       0.33333333 </v>
   <v>       0.46153846       0.38461538       0.33333333 </v>
   <v>      -0.46153846       0.38461538       0.33333333 </v>
   <v>      -0.38461538       0.38461538       0.33333333 </v>
   <v>      -0.30769231       0.38461538       0.33333333 </v>
   <v>      -0.23076923       0.38461538       0.33333333 </v>
   <v>      -0.15384615       0.38461538       0.33333333 </v>
   <v>      -0.07692308       0.38461538       0.33333333 </v>
   <v>       0.46153846       0.46153846       0.33333333 </v>
   <v>      -0.46153846       0.46153846       0.33333333 </v>
   <v>      -0.38461538       0.46153846       0.33333333 </v>
   <v>      -0.30769231       0.46153846       0.33333333 </v>
   <v>      -0.23076923       0.46153846       0.33333333 </v>
   <v>      -0.15384615       0.46153846       0.33333333 </v>
   <v>      -0.07692308       0.46153846       0.33333333 </v>
   <v>      -0.46153846      -0.46153846       0.33333333 </v>
   <v>      -0.38461538      -0.46153846       0.33333333 </v>
   <v>      -0.30769231      -0.46153846       0.33333333 </v>
   <v>      -0.23076923      -0.46153846       0.33333333 </v>
   <v>      -0.15384615      -0.46153846       0.33333333 </v>
   <v>      -0.07692308      -0.46153846       0.33333333 </v>
   <v>      -0.38461538      -0.38461538       0.33333333 </v>
   <v>      -0.30769231      -0.38461538       0.33333333 </v>
   <v>      -0.23076923      -0.38461538       0.33333333 </v>
   <v>      -0.15384615      -0.38461538       0.33333333 </v>
   <v>      -0.07692308      -0.38461538       0.33333333 </v>
   <v>      -0.30769231      -0.30769231       0.33333333 </v>
   <v>      -0.23076923      -0.30769231       0.33333333 </v>
   <v>      -0.15384615      -0.30769231       0.33333333 </v>
   <v>      -0.07692308      -0.30769231       0.33333333 </v>
   <v>      -0.23076923      -0.23076923       0.33333333 </v>
   <v>      -0.15384615      -0.23076923       0.33333333 </v>
   <v>      -0.07692308      -0.23076923       0.33333333 </v>
   <v>      -0.15384615      -0.15384615       0.33333333 </v>
   <v>      -0.07692308      -0.15384615       0.33333333 </v>
   <v>      -0.07692308      -0.07692308       0.33333333 </v>
   <v>       0.00000000       0.00000000       0.38888889 </v>
   <v>       0.07692308       0.00000000       0.38888889 </v>
   <v>       0.15384615       0.00000000       0.38888889 </v>
   <v>       0.23076923       0.00000000       0.38888889 </v>
   <v>       0.30769231       0.00000000       0.38888889 </v>
   <v>       0.38461538       0.00000000       0.38888889 </v>
   <v>       0.46153846       0.00000000       0.38888889 </v>
   <v>      -0.46153846       0.00000000       0.38888889 </v>
   <v>      -0.38461538       0.00000000       0.38888889 </v>
   <v>      -0.30769231       0.00000000       0.38888889 </v>
   <v>      -0.23076923       0.00000000       0.38888889 </v>
   <v>      -0.15384615       0.00000000       0.38888889 </v>
   <v>      -0.07692308       0.00000000       0.38888889 </v>
   <v>       0.07692308       0.07692308       0.38888889 </v>
   <v>       0.15384615       0.07692308       0.38888889 </v>
   <v>       0.23076923       0.07692308       0.38888889 </v>
   <v>       0.30769231       0.07692308       0.38888889 </v>
   <v>       0.38461538       0.07692308       0.38888889 </v>
   <v>       0.46153846       0.07692308       0.38888889 </v>
   <v>      -0.46153846       0.07692308       0.38888889 </v>
   <v>      -0.38461538       0.07692308       0.38888889 </v>
   <v>      -0.30769231       0.07692308       0.38888889 </v>
   <v>      -0.23076923       0.07692308       0.38888889 </v>
   <v>      -0.15384615       0.07692308       0.38888889 </v>
   <v>      -0.07692308       0.07692308       0.38888889 </v>
   <v>       0.15384615       0.15384615       0.38888889 </v>
   <v>       0.23076923       0.15384615       0.38888889 </v>
   <v>       0.30769231       0.15384615       0.38888889 </v>
   <v>       0.38461538       0.15384615       0.38888889 </v>
   <v>       0.46153846       0.15384615       0.38888889 </v>
   <v>      -0.46153846       0.15384615       0.38888889 </v>
   <v>      -0.38461538       0.15384615       0.38888889 </v>
   <v>      -0.30769231       0.15384615       0.38888889 </v>
   <v>      -0.23076923       0.15384615       0.38888889 </v>
   <v>      -0.15384615       0.15384615       0.38888889 </v>
   <v>      -0.07692308       0.15384615       0.38888889 </v>
   <v>       0.23076923       0.23076923       0.38888889 </v>
   <v>       0.30769231       0.23076923       0.38888889 </v>
   <v>       0.38461538       0.23076923       0.38888889 </v>
   <v>       0.46153846       0.23076923       0.38888889 </v>
   <v>      -0.46153846       0.23076923       0.38888889 </v>
   <v>      -0.38461538       0.23076923       0.38888889 </v>
   <v>      -0.30769231       0.23076923       0.38888889 </v>
   <v>      -0.23076923       0.23076923       0.38888889 </v>
   <v>      -0.15384615       0.23076923       0.38888889 </v>
   <v>      -0.07692308       0.23076923       0.38888889 </v>
   <v>       0.30769231       0.30769231       0.38888889 </v>
   <v>       0.38461538       0.30769231       0.38888889 </v>
   <v>       0.46153846       0.30769231       0.38888889 </v>
   <v>      -0.46153846       0.30769231       0.38888889 </v>
   <v>      -0.38461538       0.30769231       0.38888889 </v>
   <v>      -0.30769231       0.30769231       0.38888889 </v>
   <v>      -0.23076923       0.30769231       0.38888889 </v>
   <v>      -0.15384615       0.30769231       0.38888889 </v>
   <v>      -0.07692308       0.30769231       0.38888889 </v>
   <v>       0.38461538       0.38461538       0.38888889 </v>
   <v>       0.46153846       0.38461538       0.38888889 </v>
   <v>      -0.46153846       0.38461538       0.38888889 </v>
   <v>      -0.38461538       0.38461538       0.38888889 </v>
   <v>      -0.30769231       0.38461538       0.38888889 </v>
   <v>      -0.23076923       0.38461538       0.38888889 </v>
   <v>      -0.15384615       0.38461538       0.38888889 </v>
   <v>      -0.07692308       0.38461538       0.38888889 </v>
   <v>       0.46153846       0.46153846       0.38888889 </v>
   <v>      -0.46153846       0.46153846       0.38888889 </v>
   <v>      -0.38461538       0.46153846       0.38888889 </v>
   <v>      -0.30769231       0.46153846       0.38888889 </v>
   <v>      -0.23076923       0.46153846       0.38888889 </v>
   <v>      -0.15384615       0.46153846       0.38888889 </v>
   <v>      -0.07692308       0.46153846       0.38888889 </v>
   <v>      -0.46153846      -0.46153846       0.38888889 </v>
   <v>      -0.38461538      -0.46153846       0.38888889 </v>
   <v>      -0.30769231      -0.46153846       0.38888889 </v>
   <v>      -0.23076923      -0.46153846       0.38888889 </v>
   <v>      -0.15384615      -0.46153846       0.38888889 </v>
   <v>      -0.07692308      -0.46153846       0.38888889 </v>
   <v>      -0.38461538      -0.38461538       0.38888889 </v>
   <v>      -0.30769231      -0.38461538       0.38888889 </v>
   <v>      -0.23076923      -0.38461538       0.38888889 </v>
   <v>      -0.15384615      -0.38461538       0.38888889 </v>
   <v>      -0.07692308      -0.38461538       0.38888889 </v>
   <v>      -0.30769231      -0.30769231       0.38888889 </v>
   <v>      -0.23076923      -0.30769231       0.38888889 </v>
   <v>      -0.15384615      -0.30769231       0.38888889 </v>
   <v>      -0.07692308      -0.30769231       0.38888889 </v>
   <v>      -0.23076923      -0.23076923       0.38888889 </v>
   <v>      -0.15384615      -0.23076923       0.38888889 </v>
   <v>      -0.07692308      -0.23076923       0.38888889 </v>
   <v>      -0.15384615      -0.15384615       0.38888889 </v>
   <v>      -0.07692308      -0.15384615       0.38888889 </v>
   <v>      -0.07692308      -0.07692308       0.38888889 </v>
   <v>       0.00000000       0.00000000       0.44444444 </v>
   <v>       0.07692308       0.00000000       0.44444444 </v>
   <v>       0.15384615       0.00000000       0.44444444 </v>
   <v>       0.23076923       0.00000000       0.44444444 </v>
   <v>       0.30769231       0.00000000       0.44444444 </v>
   <v>       0.38461538       0.00000000       0.44444444 </v>
   <v>       0.46153846       0.00000000       0.44444444 </v>
   <v>      -0.46153846       0.00000000       0.44444444 </v>
   <v>      -0.38461538       0.00000000       0.44444444 </v>
   <v>      -0.30769231       0.00000000       0.44444444 </v>
   <v>      -0.23076923       0.00000000       0.44444444 </v>
   <v>      -0.15384615       0.00000000       0.44444444 </v>
   <v>      -0.07692308       0.00000000       0.44444444 </v>
   <v>       0.07692308       0.07692308       0.44444444 </v>
   <v>       0.15384615       0.07692308       0.44444444 </v>
   <v>       0.23076923       0.07692308       0.44444444 </v>
   <v>       0.30769231       0.07692308       0.44444444 </v>
   <v>       0.38461538       0.07692308       0.44444444 </v>
   <v>       0.46153846       0.07692308       0.44444444 </v>
   <v>      -0.46153846       0.07692308       0.44444444 </v>
   <v>      -0.38461538       0.07692308       0.44444444 </v>
   <v>      -0.30769231       0.07692308       0.44444444 </v>
   <v>      -0.23076923       0.07692308       0.44444444 </v>
   <v>      -0.15384615       0.07692308       0.44444444 </v>
   <v>      -0.07692308       0.07692308       0.44444444 </v>
   <v>       0.15384615       0.15384615       0.44444444 </v>
   <v>       0.23076923       0.15384615       0.44444444 </v>
   <v>       0.30769231       0.15384615       0.44444444 </v>
   <v>       0.38461538       0.15384615       0.44444444 </v>
   <v>       0.46153846       0.15384615       0.44444444 </v>
   <v>      -0.46153846       0.15384615       0.44444444 </v>
   <v>      -0.38461538       0.15384615       0.44444444 </v>
   <v>      -0.30769231       0.15384615       0.44444444 </v>
   <v>      -0.23076923       0.15384615       0.44444444 </v>
   <v>      -0.15384615       0.15384615       0.44444444 </v>
   <v>      -0.07692308       0.15384615       0.44444444 </v>
   <v>       0.23076923       0.23076923       0.44444444 </v>
   <v>       0.30769231       0.23076923       0.44444444 </v>
   <v>       0.38461538       0.23076923       0.44444444 </v>
   <v>       0.46153846       0.23076923       0.44444444 </v>
   <v>      -0.46153846       0.23076923       0.44444444 </v>
   <v>      -0.38461538       0.23076923       0.44444444 </v>
   <v>      -0.30769231       0.23076923       0.44444444 </v>
   <v>      -0.23076923       0.23076923       0.44444444 </v>
   <v>      -0.15384615       0.23076923       0.44444444 </v>
   <v>      -0.07692308       0.23076923       0.44444444 </v>
   <v>       0.30769231       0.30769231       0.44444444 </v>
   <v>       0.38461538       0.30769231       0.44444444 </v>
   <v>       0.46153846       0.30769231       0.44444444 </v>
   <v>      -0.46153846       0.30769231       0.44444444 </v>
   <v>      -0.38461538       0.30769231       0.44444444 </v>
   <v>      -0.30769231       0.30769231       0.44444444 </v>
   <v>      -0.23076923       0.30769231       0.44444444 </v>
   <v>      -0.15384615       0.30769231       0.44444444 </v>
   <v>      -0.07692308       0.30769231       0.44444444 </v>
   <v>       0.38461538       0.38461538       0.44444444 </v>
   <v>       0.46153846       0.38461538       0.44444444 </v>
   <v>      -0.46153846       0.38461538       0.44444444 </v>
   <v>      -0.38461538       0.38461538       0.44444444 </v>
   <v>      -0.30769231       0.38461538       0.44444444 </v>
   <v>      -0.23076923       0.38461538       0.44444444 </v>
   <v>      -0.15384615       0.38461538       0.44444444 </v>
   <v>      -0.07692308       0.38461538       0.44444444 </v>
   <v>       0.46153846       0.46153846       0.44444444 </v>
   <v>      -0.46153846       0.46153846       0.44444444 </v>
   <v>      -0.38461538       0.46153846       0.44444444 </v>
   <v>      -0.30769231       0.46153846       0.44444444 </v>
   <v>      -0.23076923       0.46153846       0.44444444 </v>
   <v>      -0.15384615       0.46153846       0.44444444 </v>
   <v>      -0.07692308       0.46153846       0.44444444 </v>
   <v>      -0.46153846      -0.46153846       0.44444444 </v>
   <v>      -0.38461538      -0.46153846       0.44444444 </v>
   <v>      -0.30769231      -0.46153846       0.44444444 </v>
   <v>      -0.23076923      -0.46153846       0.44444444 </v>
   <v>      -0.15384615      -0.46153846       0.44444444 </v>
   <v>      -0.07692308      -0.46153846       0.44444444 </v>
   <v>      -0.38461538      -0.38461538       0.44444444 </v>
   <v>      -0.30769231      -0.38461538       0.44444444 </v>
   <v>      -0.23076923      -0.38461538       0.44444444 </v>
   <v>      -0.15384615      -0.38461538       0.44444444 </v>
   <v>      -0.07692308      -0.38461538       0.44444444 </v>
   <v>      -0.30769231      -0.30769231       0.44444444 </v>
   <v>      -0.23076923      -0.30769231       0.44444444 </v>
   <v>      -0.15384615      -0.30769231       0.44444444 </v>
   <v>      -0.07692308      -0.30769231       0.44444444 </v>
   <v>      -0.23076923      -0.23076923       0.44444444 </v>
   <v>      -0.15384615      -0.23076923       0.44444444 </v>
   <v>      -0.07692308      -0.23076923       0.44444444 </v>
   <v>      -0.15384615      -0.15384615       0.44444444 </v>
   <v>      -0.07692308      -0.15384615       0.44444444 </v>
   <v>      -0.07692308      -0.07692308       0.44444444 </v>
   <v>       0.00000000       0.00000000       0.50000000 </v>
   <v>       0.07692308       0.00000000       0.50000000 </v>
   <v>       0.15384615       0.00000000       0.50000000 </v>
   <v>       0.23076923       0.00000000       0.50000000 </v>
   <v>       0.30769231       0.00000000       0.50000000 </v>
   <v>       0.38461538       0.00000000       0.50000000 </v>
   <v>       0.46153846       0.00000000       0.50000000 </v>
   <v>       0.07692308       0.07692308       0.50000000 </v>
   <v>       0.15384615       0.07692308       0.50000000 </v>
   <v>       0.23076923       0.07692308       0.50000000 </v>
   <v>       0.30769231       0.07692308       0.50000000 </v>
   <v>       0.38461538       0.07692308       0.50000000 </v>
   <v>       0.46153846       0.07692308       0.50000000 </v>
   <v>      -0.46153846       0.07692308       0.50000000 </v>
   <v>      -0.38461538       0.07692308       0.50000000 </v>
   <v>      -0.30769231       0.07692308       0.50000000 </v>
   <v>      -0.23076923       0.07692308       0.50000000 </v>
   <v>      -0.15384615       0.07692308       0.50000000 </v>
   <v>      -0.07692308       0.07692308       0.50000000 </v>
   <v>       0.15384615       0.15384615       0.50000000 </v>
   <v>       0.23076923       0.15384615       0.50000000 </v>
   <v>       0.30769231       0.15384615       0.50000000 </v>
   <v>       0.38461538       0.15384615       0.50000000 </v>
   <v>       0.46153846       0.15384615       0.50000000 </v>
   <v>      -0.46153846       0.15384615       0.50000000 </v>
   <v>      -0.38461538       0.15384615       0.50000000 </v>
   <v>      -0.30769231       0.15384615       0.50000000 </v>
   <v>      -0.23076923       0.15384615       0.50000000 </v>
   <v>      -0.15384615       0.15384615       0.50000000 </v>
   <v>       0.23076923       0.23076923       0.50000000 </v>
   <v>       0.30769231       0.23076923       0.50000000 </v>
   <v>       0.38461538       0.23076923       0.50000000 </v>
   <v>       0.46153846       0.23076923       0.50000000 </v>
   <v>      -0.46153846       0.23076923       0.50000000 </v>
   <v>      -0.38461538       0.23076923       0.50000000 </v>
   <v>      -0.30769231       0.23076923       0.50000000 </v>
   <v>      -0.23076923       0.23076923       0.50000000 </v>
   <v>       0.30769231       0.30769231       0.50000000 </v>
   <v>       0.38461538       0.30769231       0.50000000 </v>
   <v>       0.46153846       0.30769231       0.50000000 </v>
   <v>      -0.46153846       0.30769231       0.50000000 </v>
   <v>      -0.38461538       0.30769231       0.50000000 </v>
   <v>      -0.30769231       0.30769231       0.50000000 </v>
   <v>       0.38461538       0.38461538       0.50000000 </v>
   <v>       0.46153846       0.38461538       0.50000000 </v>
   <v>      -0.46153846       0.38461538       0.50000000 </v>
   <v>      -0.38461538       0.38461538       0.50000000 </v>
   <v>       0.46153846       0.46153846       0.50000000 </v>
   <v>      -0.46153846       0.46153846       0.50000000 </v>
  </varray>
  <varray name="weights" >
   <v>       0.00032873 </v>
   <v>       0.00131492 </v>
   <v>       0.00131492 </v>
   <v>       0.00131492 </v>
   <v>       0.00131492 </v>
   <v>       0.00131492 </v>
   <v>       0.00131492 </v>
   <v>       0.00065746 </v>
   <v>       0.00131492 </v>
   <v>       0.00131492 </v>
   <v>       0.00131492 </v>
   <v>       0.00131492 </v>
   <v>       0.00131492 </v>
   <v>       0.00131492 </v>
   <v>       0.00131492 </v>
   <v>       0.00131492 </v>
   <v>       0.00131492 </v>
   <v>       0.00131492 </v>
   <v>       0.00065746 </v>
   <v>       0.00065746 </v>
   <v>       0.00131492 </v>
   <v>       0.00131492 </v>
   <v>       0.00131492 </v>
   <v>       0.00131492 </v>
   <v>       0.00131492 </v>
   <v>       0.00131492 </v>
   <v>       0.00131492 </v>
   <v>       0.00131492 </v>
   <v>       0.00065746 </v>
   <v>       0.00065746 </v>
   <v>       0.00131492 </v>
   <v>       0.00131492 </v>
   <v>       0.00131492 </v>
   <v>       0.00131492 </v>
   <v>       0.00131492 </v>
   <v>       0.00131492 </v>
   <v>       0.00065746 </v>
   <v>       0.00065746 </v>
   <v>       0.00131492 </v>
   <v>       0.00131492 </v>
   <v>       0.00131492 </v>
   <v>       0.00131492 </v>
   <v>       0.00065746 </v>
   <v>       0.00065746 </v>
   <v>       0.00131492 </v>
   <v>       0.00131492 </v>
   <v>       0.00065746 </v>
   <v>       0.00065746 </v>
   <v>       0.00065746 </v>
   <v>       0.00065746 </v>
   <v>       0.00131492 </v>
   <v>       0.00131492 </v>
   <v>       0.00131492 </v>
   <v>       0.00131492 </v>
   <v>       0.00131492 </v>
   <v>       0.00131492 </v>
   <v>       0.00131492 </v>
   <v>       0.00131492 </v>
   <v>       0.00131492 </v>
   <v>       0.00131492 </v>
   <v>       0.00131492 </v>
   <v>       0.00131492 </v>
   <v>       0.00065746 </v>
   <v>       0.00131492 </v>
   <v>       0.00131492 </v>
   <v>       0.00131492 </v>
   <v>       0.00131492 </v>
   <v>       0.00131492 </v>
   <v>       0.00131492 </v>
   <v>       0.00131492 </v>
   <v>       0.00131492 </v>
   <v>       0.00131492 </v>
   <v>       0.00131492 </v>
   <v>       0.00131492 </v>
   <v>       0.00065746 </v>
   <v>       0.00131492 </v>
   <v>       0.00131492 </v>
   <v>       0.00131492 </v>
   <v>       0.00131492 </v>
   <v>       0.00131492 </v>
   <v>       0.00131492 </v>
   <v>       0.00131492 </v>
   <v>       0.00131492 </v>
   <v>       0.00131492 </v>
   <v>       0.00131492 </v>
   <v>       0.00065746 </v>
   <v>       0.00131492 </v>
   <v>       0.00131492 </v>
   <v>       0.00131492 </v>
   <v>       0.00131492 </v>
   <v>       0.00131492 </v>
   <v>       0.00131492 </v>
   <v>       0.00131492 </v>
   <v>       0.00131492 </v>
   <v>       0.00131492 </v>
   <v>       0.00065746 </v>
   <v>       0.00131492 </v>
   <v>       0.00131492 </v>
   <v>       0.00131492 </v>
   <v>       0.00131492 </v>
   <v>       0.00131492 </v>
   <v>       0.00131492 </v>
   <v>       0.00131492 </v>
   <v>       0.00131492 </v>
   <v>       0.00065746 </v>
   <v>       0.00131492 </v>
   <v>       0.00131492 </v>
   <v>       0.00131492 </v>
   <v>       0.00131492 </v>
   <v>       0.00131492 </v>
   <v>       0.00131492 </v>
   <v>       0.00131492 </v>
   <v>       0.00065746 </v>
   <v>       0.00131492 </v>
   <v>       0.00131492 </v>
   <v>       0.00131492 </v>
   <v>       0.00131492 </v>
   <v>       0.00131492 </v>
   <v>       0.00131492 </v>
   <v>       0.00065746 </v>
   <v>       0.00131492 </v>
   <v>       0.00131492 </v>
   <v>       0.00131492 </v>
   <v>       0.00131492 </v>
   <v>       0.00131492 </v>
   <v>       0.00065746 </v>
   <v>       0.00131492 </v>
   <v>       0.00131492 </v>
   <v>       0.00131492 </v>
   <v>       0.00131492 </v>
   <v>       0.00065746 </v>
   <v>       0.00131492 </v>
   <v>       0.00131492 </v>
   <v>       0.00131492 </v>
   <v>       0.00065746 </v>
   <v>       0.00131492 </v>
   <v>       0.00131492 </v>
   <v>       0.00065746 </v>
   <v>       0.00131492 </v>
   <v>       0.00065746 </v>
   <v>       0.00065746 </v>
   <v>       0.00131492 </v>
   <v>       0.00131492 </v>
   <v>       0.00131492 </v>
   <v>       0.00131492 </v>
   <v>       0.00131492 </v>
   <v>       0.00131492 </v>
   <v>       0.00131492 </v>
   <v>       0.00131492 </v>
   <v>       0.00131492 </v>
   <v>       0.00131492 </v>
   <v>       0.00131492 </v>
   <v>       0.00131492 </v>
   <v>       0.00065746 </v>
   <v>       0.00131492 </v>
   <v>       0.00131492 </v>
   <v>       0.00131492 </v>
   <v>       0.00131492 </v>
   <v>       0.00131492 </v>
   <v>       0.00131492 </v>
   <v>       0.00131492 </v>
   <v>       0.00131492 </v>
   <v>       0.00131492 </v>
   <v>       0.00131492 </v>
   <v>       0.00131492 </v>
   <v>       0.00065746 </v>
   <v>       0.00131492 </v>
   <v>       0.00131492 </v>
   <v>       0.00131492 </v>
   <v>       0.00131492 </v>
   <v>       0.00131492 </v>
   <v>       0.00131492 </v>
   <v>       0.00131492 </v>
   <v>       0.00131492 </v>
   <v>       0.00131492 </v>
   <v>       0.00131492 </v>
   <v>       0.00065746 </v>
   <v>       0.00131492 </v>
   <v>       0.00131492 </v>
   <v>       0.00131492 </v>
   <v>       0.00131492 </v>
   <v>       0.00131492 </v>
   <v>       0.00131492 </v>
   <v>       0.00131492 </v>
   <v>       0.00131492 </v>
   <v>       0.00131492 </v>
   <v>       0.00065746 </v>
   <v>       0.00131492 </v>
   <v>       0.00131492 </v>
   <v>       0.00131492 </v>
   <v>       0.00131492 </v>
   <v>       0.00131492 </v>
   <v>       0.00131492 </v>
   <v>       0.00131492 </v>
   <v>       0.00131492 </v>
   <v>       0.00065746 </v>
   <v>       0.00131492 </v>
   <v>       0.00131492 </v>
   <v>       0.00131492 </v>
   <v>       0.00131492 </v>
   <v>       0.00131492 </v>
   <v>       0.00131492 </v>
   <v>       0.00131492 </v>
   <v>       0.00065746 </v>
   <v>       0.00131492 </v>
   <v>       0.00131492 </v>
   <v>       0.00131492 </v>
   <v>       0.00131492 </v>
   <v>       0.00131492 </v>
   <v>       0.00131492 </v>
   <v>       0.00065746 </v>
   <v>       0.00131492 </v>
   <v>       0.00131492 </v>
   <v>       0.00131492 </v>
   <v>       0.00131492 </v>
   <v>       0.00131492 </v>
   <v>       0.00065746 </v>
   <v>       0.00131492 </v>
   <v>       0.00131492 </v>
   <v>       0.00131492 </v>
   <v>       0.00131492 </v>
   <v>       0.00065746 </v>
   <v>       0.00131492 </v>
   <v>       0.00131492 </v>
   <v>       0.00131492 </v>
   <v>       0.00065746 </v>
   <v>       0.00131492 </v>
   <v>       0.00131492 </v>
   <v>       0.00065746 </v>
   <v>       0.00131492 </v>
   <v>       0.00065746 </v>
   <v>       0.00065746 </v>
   <v>       0.00131492 </v>
   <v>       0.00131492 </v>
   <v>       0.00131492 </v>
   <v>       0.00131492 </v>
   <v>       0.00131492 </v>
   <v>       0.00131492 </v>
   <v>       0.00131492 </v>
   <v>       0.00131492 </v>
   <v>       0.00131492 </v>
   <v>       0.00131492 </v>
   <v>       0.00131492 </v>
   <v>       0.00131492 </v>
   <v>       0.00065746 </v>
   <v>       0.00131492 </v>
   <v>       0.00131492 </v>
   <v>       0.00131492 </v>
   <v>       0.00131492 </v>
   <v>       0.00131492 </v>
   <v>       0.00131492 </v>
   <v>       0.00131492 </v>
   <v>       0.00131492 </v>
   <v>       0.00131492 </v>
   <v>       0.00131492 </v>
   <v>       0.00131492 </v>
   <v>       0.00065746 </v>
   <v>       0.00131492 </v>
   <v>       0.00131492 </v>
   <v>       0.00131492 </v>
   <v>       0.00131492 </v>
   <v>       0.00131492 </v>
   <v>       0.00131492 </v>
   <v>       0.00131492 </v>
   <v>       0.00131492 </v>
   <v>       0.00131492 </v>
   <v>       0.00131492 </v>
   <v>       0.00065746 </v>
   <v>       0.00131492 </v>
   <v>       0.00131492 </v>
   <v>       0.00131492 </v>
   <v>       0.00131492 </v>
   <v>       0.00131492 </v>
   <v>       0.00131492 </v>
   <v>       0.00131492 </v>
   <v>       0.00131492 </v>
   <v>       0.00131492 </v>
   <v>       0.00065746 </v>
   <v>       0.00131492 </v>
   <v>       0.00131492 </v>
   <v>       0.00131492 </v>
   <v>       0.00131492 </v>
   <v>       0.00131492 </v>
   <v>       0.00131492 </v>
   <v>       0.00131492 </v>
   <v>       0.00131492 </v>
   <v>       0.00065746 </v>
   <v>       0.00131492 </v>
   <v>       0.00131492 </v>
   <v>       0.00131492 </v>
   <v>       0.00131492 </v>
   <v>       0.00131492 </v>
   <v>       0.00131492 </v>
   <v>       0.00131492 </v>
   <v>       0.00065746 </v>
   <v>       0.00131492 </v>
   <v>       0.00131492 </v>
   <v>       0.00131492 </v>
   <v>       0.00131492 </v>
   <v>       0.00131492 </v>
   <v>       0.00131492 </v>
   <v>       0.00065746 </v>
   <v>       0.00131492 </v>
   <v>       0.00131492 </v>
   <v>       0.00131492 </v>
   <v>       0.00131492 </v>
   <v>       0.00131492 </v>
   <v>       0.00065746 </v>
   <v>       0.00131492 </v>
   <v>       0.00131492 </v>
   <v>       0.00131492 </v>
   <v>       0.00131492 </v>
   <v>       0.00065746 </v>
   <v>       0.00131492 </v>
   <v>       0.00131492 </v>
   <v>       0.00131492 </v>
   <v>       0.00065746 </v>
   <v>       0.00131492 </v>
   <v>       0.00131492 </v>
   <v>       0.00065746 </v>
   <v>       0.00131492 </v>
   <v>       0.00065746 </v>
   <v>       0.00065746 </v>
   <v>       0.00131492 </v>
   <v>       0.00131492 </v>
   <v>       0.00131492 </v>
   <v>       0.00131492 </v>
   <v>       0.00131492 </v>
   <v>       0.00131492 </v>
   <v>       0.00131492 </v>
   <v>       0.00131492 </v>
   <v>       0.00131492 </v>
   <v>       0.00131492 </v>
   <v>       0.00131492 </v>
   <v>       0.00131492 </v>
   <v>       0.00065746 </v>
   <v>       0.00131492 </v>
   <v>       0.00131492 </v>
   <v>       0.00131492 </v>
   <v>       0.00131492 </v>
   <v>       0.00131492 </v>
   <v>       0.00131492 </v>
   <v>       0.00131492 </v>
   <v>       0.00131492 </v>
   <v>       0.00131492 </v>
   <v>       0.00131492 </v>
   <v>       0.00131492 </v>
   <v>       0.00065746 </v>
   <v>       0.00131492 </v>
   <v>       0.00131492 </v>
   <v>       0.00131492 </v>
   <v>       0.00131492 </v>
   <v>       0.00131492 </v>
   <v>       0.00131492 </v>
   <v>       0.00131492 </v>
   <v>       0.00131492 </v>
   <v>       0.00131492 </v>
   <v>       0.00131492 </v>
   <v>       0.00065746 </v>
   <v>       0.00131492 </v>
   <v>       0.00131492 </v>
   <v>       0.00131492 </v>
   <v>       0.00131492 </v>
   <v>       0.00131492 </v>
   <v>       0.00131492 </v>
   <v>       0.00131492 </v>
   <v>       0.00131492 </v>
   <v>       0.00131492 </v>
   <v>       0.00065746 </v>
   <v>       0.00131492 </v>
   <v>       0.00131492 </v>
   <v>       0.00131492 </v>
   <v>       0.00131492 </v>
   <v>       0.00131492 </v>
   <v>       0.00131492 </v>
   <v>       0.00131492 </v>
   <v>       0.00131492 </v>
   <v>       0.00065746 </v>
   <v>       0.00131492 </v>
   <v>       0.00131492 </v>
   <v>       0.00131492 </v>
   <v>       0.00131492 </v>
   <v>       0.00131492 </v>
   <v>       0.00131492 </v>
   <v>       0.00131492 </v>
   <v>       0.00065746 </v>
   <v>       0.00131492 </v>
   <v>       0.00131492 </v>
   <v>       0.00131492 </v>
   <v>       0.00131492 </v>
   <v>       0.00131492 </v>
   <v>       0.00131492 </v>
   <v>       0.00065746 </v>
   <v>       0.00131492 </v>
   <v>       0.00131492 </v>
   <v>       0.00131492 </v>
   <v>       0.00131492 </v>
   <v>       0.00131492 </v>
   <v>       0.00065746 </v>
   <v>       0.00131492 </v>
   <v>       0.00131492 </v>
   <v>       0.00131492 </v>
   <v>       0.00131492 </v>
   <v>       0.00065746 </v>
   <v>       0.00131492 </v>
   <v>       0.00131492 </v>
   <v>       0.00131492 </v>
   <v>       0.00065746 </v>
   <v>       0.00131492 </v>
   <v>       0.00131492 </v>
   <v>       0.00065746 </v>
   <v>       0.00131492 </v>
   <v>       0.00065746 </v>
   <v>       0.00065746 </v>
   <v>       0.00131492 </v>
   <v>       0.00131492 </v>
   <v>       0.00131492 </v>
   <v>       0.00131492 </v>
   <v>       0.00131492 </v>
   <v>       0.00131492 </v>
   <v>       0.00131492 </v>
   <v>       0.00131492 </v>
   <v>       0.00131492 </v>
   <v>       0.00131492 </v>
   <v>       0.00131492 </v>
   <v>       0.00131492 </v>
   <v>       0.00065746 </v>
   <v>       0.00131492 </v>
   <v>       0.00131492 </v>
   <v>       0.00131492 </v>
   <v>       0.00131492 </v>
   <v>       0.00131492 </v>
   <v>       0.00131492 </v>
   <v>       0.00131492 </v>
   <v>       0.00131492 </v>
   <v>       0.00131492 </v>
   <v>       0.00131492 </v>
   <v>       0.00131492 </v>
   <v>       0.00065746 </v>
   <v>       0.00131492 </v>
   <v>       0.00131492 </v>
   <v>       0.00131492 </v>
   <v>       0.00131492 </v>
   <v>       0.00131492 </v>
   <v>       0.00131492 </v>
   <v>       0.00131492 </v>
   <v>       0.00131492 </v>
   <v>       0.00131492 </v>
   <v>       0.00131492 </v>
   <v>       0.00065746 </v>
   <v>       0.00131492 </v>
   <v>       0.00131492 </v>
   <v>       0.00131492 </v>
   <v>       0.00131492 </v>
   <v>       0.00131492 </v>
   <v>       0.00131492 </v>
   <v>       0.00131492 </v>
   <v>       0.00131492 </v>
   <v>       0.00131492 </v>
   <v>       0.00065746 </v>
   <v>       0.00131492 </v>
   <v>       0.00131492 </v>
   <v>       0.00131492 </v>
   <v>       0.00131492 </v>
   <v>       0.00131492 </v>
   <v>       0.00131492 </v>
   <v>       0.00131492 </v>
   <v>       0.00131492 </v>
   <v>       0.00065746 </v>
   <v>       0.00131492 </v>
   <v>       0.00131492 </v>
   <v>       0.00131492 </v>
   <v>       0.00131492 </v>
   <v>       0.00131492 </v>
   <v>       0.00131492 </v>
   <v>       0.00131492 </v>
   <v>       0.00065746 </v>
   <v>       0.00131492 </v>
   <v>       0.00131492 </v>
   <v>       0.00131492 </v>
   <v>       0.00131492 </v>
   <v>       0.00131492 </v>
   <v>       0.00131492 </v>
   <v>       0.00065746 </v>
   <v>       0.00131492 </v>
   <v>       0.00131492 </v>
   <v>       0.00131492 </v>
   <v>       0.00131492 </v>
   <v>       0.00131492 </v>
   <v>       0.00065746 </v>
   <v>       0.00131492 </v>
   <v>       0.00131492 </v>
   <v>       0.00131492 </v>
   <v>       0.00131492 </v>
   <v>       0.00065746 </v>
   <v>       0.00131492 </v>
   <v>       0.00131492 </v>
   <v>       0.00131492 </v>
   <v>       0.00065746 </v>
   <v>       0.00131492 </v>
   <v>       0.00131492 </v>
   <v>       0.00065746 </v>
   <v>       0.00131492 </v>
   <v>       0.00065746 </v>
   <v>       0.00065746 </v>
   <v>       0.00131492 </v>
   <v>       0.00131492 </v>
   <v>       0.00131492 </v>
   <v>       0.00131492 </v>
   <v>       0.00131492 </v>
   <v>       0.00131492 </v>
   <v>       0.00131492 </v>
   <v>       0.00131492 </v>
   <v>       0.00131492 </v>
   <v>       0.00131492 </v>
   <v>       0.00131492 </v>
   <v>       0.00131492 </v>
   <v>       0.00065746 </v>
   <v>       0.00131492 </v>
   <v>       0.00131492 </v>
   <v>       0.00131492 </v>
   <v>       0.00131492 </v>
   <v>       0.00131492 </v>
   <v>       0.00131492 </v>
   <v>       0.00131492 </v>
   <v>       0.00131492 </v>
   <v>       0.00131492 </v>
   <v>       0.00131492 </v>
   <v>       0.00131492 </v>
   <v>       0.00065746 </v>
   <v>       0.00131492 </v>
   <v>       0.00131492 </v>
   <v>       0.00131492 </v>
   <v>       0.00131492 </v>
   <v>       0.00131492 </v>
   <v>       0.00131492 </v>
   <v>       0.00131492 </v>
   <v>       0.00131492 </v>
   <v>       0.00131492 </v>
   <v>       0.00131492 </v>
   <v>       0.00065746 </v>
   <v>       0.00131492 </v>
   <v>       0.00131492 </v>
   <v>       0.00131492 </v>
   <v>       0.00131492 </v>
   <v>       0.00131492 </v>
   <v>       0.00131492 </v>
   <v>       0.00131492 </v>
   <v>       0.00131492 </v>
   <v>       0.00131492 </v>
   <v>       0.00065746 </v>
   <v>       0.00131492 </v>
   <v>       0.00131492 </v>
   <v>       0.00131492 </v>
   <v>       0.00131492 </v>
   <v>       0.00131492 </v>
   <v>       0.00131492 </v>
   <v>       0.00131492 </v>
   <v>       0.00131492 </v>
   <v>       0.00065746 </v>
   <v>       0.00131492 </v>
   <v>       0.00131492 </v>
   <v>       0.00131492 </v>
   <v>       0.00131492 </v>
   <v>       0.00131492 </v>
   <v>       0.00131492 </v>
   <v>       0.00131492 </v>
   <v>       0.00065746 </v>
   <v>       0.00131492 </v>
   <v>       0.00131492 </v>
   <v>       0.00131492 </v>
   <v>       0.00131492 </v>
   <v>       0.00131492 </v>
   <v>       0.00131492 </v>
   <v>       0.00065746 </v>
   <v>       0.00131492 </v>
   <v>       0.00131492 </v>
   <v>       0.00131492 </v>
   <v>       0.00131492 </v>
   <v>       0.00131492 </v>
   <v>       0.00065746 </v>
   <v>       0.00131492 </v>
   <v>       0.00131492 </v>
   <v>       0.00131492 </v>
   <v>       0.00131492 </v>
   <v>       0.00065746 </v>
   <v>       0.00131492 </v>
   <v>       0.00131492 </v>
   <v>       0.00131492 </v>
   <v>       0.00065746 </v>
   <v>       0.00131492 </v>
   <v>       0.00131492 </v>
   <v>       0.00065746 </v>
   <v>       0.00131492 </v>
   <v>       0.00065746 </v>
   <v>       0.00065746 </v>
   <v>       0.00131492 </v>
   <v>       0.00131492 </v>
   <v>       0.00131492 </v>
   <v>       0.00131492 </v>
   <v>       0.00131492 </v>
   <v>       0.00131492 </v>
   <v>       0.00131492 </v>
   <v>       0.00131492 </v>
   <v>       0.00131492 </v>
   <v>       0.00131492 </v>
   <v>       0.00131492 </v>
   <v>       0.00131492 </v>
   <v>       0.00065746 </v>
   <v>       0.00131492 </v>
   <v>       0.00131492 </v>
   <v>       0.00131492 </v>
   <v>       0.00131492 </v>
   <v>       0.00131492 </v>
   <v>       0.00131492 </v>
   <v>       0.00131492 </v>
   <v>       0.00131492 </v>
   <v>       0.00131492 </v>
   <v>       0.00131492 </v>
   <v>       0.00131492 </v>
   <v>       0.00065746 </v>
   <v>       0.00131492 </v>
   <v>       0.00131492 </v>
   <v>       0.00131492 </v>
   <v>       0.00131492 </v>
   <v>       0.00131492 </v>
   <v>       0.00131492 </v>
   <v>       0.00131492 </v>
   <v>       0.00131492 </v>
   <v>       0.00131492 </v>
   <v>       0.00131492 </v>
   <v>       0.00065746 </v>
   <v>       0.00131492 </v>
   <v>       0.00131492 </v>
   <v>       0.00131492 </v>
   <v>       0.00131492 </v>
   <v>       0.00131492 </v>
   <v>       0.00131492 </v>
   <v>       0.00131492 </v>
   <v>       0.00131492 </v>
   <v>       0.00131492 </v>
   <v>       0.00065746 </v>
   <v>       0.00131492 </v>
   <v>       0.00131492 </v>
   <v>       0.00131492 </v>
   <v>       0.00131492 </v>
   <v>       0.00131492 </v>
   <v>       0.00131492 </v>
   <v>       0.00131492 </v>
   <v>       0.00131492 </v>
   <v>       0.00065746 </v>
   <v>       0.00131492 </v>
   <v>       0.00131492 </v>
   <v>       0.00131492 </v>
   <v>       0.00131492 </v>
   <v>       0.00131492 </v>
   <v>       0.00131492 </v>
   <v>       0.00131492 </v>
   <v>       0.00065746 </v>
   <v>       0.00131492 </v>
   <v>       0.00131492 </v>
   <v>       0.00131492 </v>
   <v>       0.00131492 </v>
   <v>       0.00131492 </v>
   <v>       0.00131492 </v>
   <v>       0.00065746 </v>
   <v>       0.00131492 </v>
   <v>       0.00131492 </v>
   <v>       0.00131492 </v>
   <v>       0.00131492 </v>
   <v>       0.00131492 </v>
   <v>       0.00065746 </v>
   <v>       0.00131492 </v>
   <v>       0.00131492 </v>
   <v>       0.00131492 </v>
   <v>       0.00131492 </v>
   <v>       0.00065746 </v>
   <v>       0.00131492 </v>
   <v>       0.00131492 </v>
   <v>       0.00131492 </v>
   <v>       0.00065746 </v>
   <v>       0.00131492 </v>
   <v>       0.00131492 </v>
   <v>       0.00065746 </v>
   <v>       0.00131492 </v>
   <v>       0.00065746 </v>
   <v>       0.00065746 </v>
   <v>       0.00131492 </v>
   <v>       0.00131492 </v>
   <v>       0.00131492 </v>
   <v>       0.00131492 </v>
   <v>       0.00131492 </v>
   <v>       0.00131492 </v>
   <v>       0.00131492 </v>
   <v>       0.00131492 </v>
   <v>       0.00131492 </v>
   <v>       0.00131492 </v>
   <v>       0.00131492 </v>
   <v>       0.00131492 </v>
   <v>       0.00065746 </v>
   <v>       0.00131492 </v>
   <v>       0.00131492 </v>
   <v>       0.00131492 </v>
   <v>       0.00131492 </v>
   <v>       0.00131492 </v>
   <v>       0.00131492 </v>
   <v>       0.00131492 </v>
   <v>       0.00131492 </v>
   <v>       0.00131492 </v>
   <v>       0.00131492 </v>
   <v>       0.00131492 </v>
   <v>       0.00065746 </v>
   <v>       0.00131492 </v>
   <v>       0.00131492 </v>
   <v>       0.00131492 </v>
   <v>       0.00131492 </v>
   <v>       0.00131492 </v>
   <v>       0.00131492 </v>
   <v>       0.00131492 </v>
   <v>       0.00131492 </v>
   <v>       0.00131492 </v>
   <v>       0.00131492 </v>
   <v>       0.00065746 </v>
   <v>       0.00131492 </v>
   <v>       0.00131492 </v>
   <v>       0.00131492 </v>
   <v>       0.00131492 </v>
   <v>       0.00131492 </v>
   <v>       0.00131492 </v>
   <v>       0.00131492 </v>
   <v>       0.00131492 </v>
   <v>       0.00131492 </v>
   <v>       0.00065746 </v>
   <v>       0.00131492 </v>
   <v>       0.00131492 </v>
   <v>       0.00131492 </v>
   <v>       0.00131492 </v>
   <v>       0.00131492 </v>
   <v>       0.00131492 </v>
   <v>       0.00131492 </v>
   <v>       0.00131492 </v>
   <v>       0.00065746 </v>
   <v>       0.00131492 </v>
   <v>       0.00131492 </v>
   <v>       0.00131492 </v>
   <v>       0.00131492 </v>
   <v>       0.00131492 </v>
   <v>       0.00131492 </v>
   <v>       0.00131492 </v>
   <v>       0.00065746 </v>
   <v>       0.00131492 </v>
   <v>       0.00131492 </v>
   <v>       0.00131492 </v>
   <v>       0.00131492 </v>
   <v>       0.00131492 </v>
   <v>       0.00131492 </v>
   <v>       0.00065746 </v>
   <v>       0.00131492 </v>
   <v>       0.00131492 </v>
   <v>       0.00131492 </v>
   <v>       0.00131492 </v>
   <v>       0.00131492 </v>
   <v>       0.00065746 </v>
   <v>       0.00131492 </v>
   <v>       0.00131492 </v>
   <v>       0.00131492 </v>
   <v>       0.00131492 </v>
   <v>       0.00065746 </v>
   <v>       0.00131492 </v>
   <v>       0.00131492 </v>
   <v>       0.00131492 </v>
   <v>       0.00065746 </v>
   <v>       0.00131492 </v>
   <v>       0.00131492 </v>
   <v>       0.00065746 </v>
   <v>       0.00131492 </v>
   <v>       0.00065746 </v>
   <v>       0.00032873 </v>
   <v>       0.00131492 </v>
   <v>       0.00131492 </v>
   <v>       0.00131492 </v>
   <v>       0.00131492 </v>
   <v>       0.00131492 </v>
   <v>       0.00131492 </v>
   <v>       0.00065746 </v>
   <v>       0.00131492 </v>
   <v>       0.00131492 </v>
   <v>       0.00131492 </v>
   <v>       0.00131492 </v>
   <v>       0.00131492 </v>
   <v>       0.00131492 </v>
   <v>       0.00131492 </v>
   <v>       0.00131492 </v>
   <v>       0.00131492 </v>
   <v>       0.00131492 </v>
   <v>       0.00065746 </v>
   <v>       0.00065746 </v>
   <v>       0.00131492 </v>
   <v>       0.00131492 </v>
   <v>       0.00131492 </v>
   <v>       0.00131492 </v>
   <v>       0.00131492 </v>
   <v>       0.00131492 </v>
   <v>       0.00131492 </v>
   <v>       0.00131492 </v>
   <v>       0.00065746 </v>
   <v>       0.00065746 </v>
   <v>       0.00131492 </v>
   <v>       0.00131492 </v>
   <v>       0.00131492 </v>
   <v>       0.00131492 </v>
   <v>       0.00131492 </v>
   <v>       0.00131492 </v>
   <v>       0.00065746 </v>
   <v>       0.00065746 </v>
   <v>       0.00131492 </v>
   <v>       0.00131492 </v>
   <v>       0.00131492 </v>
   <v>       0.00131492 </v>
   <v>       0.00065746 </v>
   <v>       0.00065746 </v>
   <v>       0.00131492 </v>
   <v>       0.00131492 </v>
   <v>       0.00065746 </v>
   <v>       0.00065746 </v>
   <v>       0.00065746 </v>
  </varray>
 </kpoints>
 <parameters>
  <separator name="general" >
   <i type="string" name="SYSTEM">unknown system</i>
   <i type="logical" name="LCOMPAT"> F  </i>
  </separator>
  <separator name="electronic" >
   <i type="string" name="PREC">normal</i>
   <i name="ENMAX">    400.00000000</i>
   <i name="ENAUG">    605.39200000</i>
   <i name="EDIFF">      0.00000001</i>
   <i type="int" name="IALGO">    90</i>
   <i type="int" name="IWAVPR">    10</i>
   <i type="int" name="NBANDS">    96</i>
   <i type="int" name="NBANDSLOW">    -1</i>
   <i type="int" name="NBANDSHIGH">    -1</i>
   <i name="NELECT">     80.00000000</i>
   <i type="int" name="TURBO">     0</i>
   <i type="int" name="IRESTART">     0</i>
   <i type="int" name="NREBOOT">     0</i>
   <i type="int" name="NMIN">     0</i>
   <i name="EREF">      0.00000000</i>
   <separator name="electronic smearing" >
    <i type="int" name="ISMEAR">     0</i>
    <i name="SIGMA">      0.01000000</i>
[...]
       <r>    18.4114     3.2238   113.4985 </r>
       <r>    18.4691     3.9560   113.7265 </r>
       <r>    18.5267     4.0183   113.9581 </r>
       <r>    18.5843     3.7068   114.1717 </r>
       <r>    18.6419     3.6622   114.3827 </r>
       <r>    18.6996     3.2430   114.5696 </r>
       <r>    18.7572     3.5093   114.7718 </r>
       <r>    18.8148     2.8922   114.9385 </r>
       <r>    18.8724     2.4803   115.0815 </r>
       <r>    18.9301     2.5502   115.2284 </r>
       <r>    18.9877     2.8075   115.3902 </r>
       <r>    19.0453     3.9955   115.6205 </r>
       <r>    19.1029     3.5649   115.8259 </r>
       <r>    19.1606     3.3541   116.0192 </r>
       <r>    19.2182     3.2279   116.2052 </r>
       <r>    19.2758     2.7882   116.3659 </r>
       <r>    19.3335     3.0770   116.5432 </r>
       <r>    19.3911     3.1505   116.7248 </r>
       <r>    19.4487     3.8476   116.9465 </r>
       <r>    19.5063     4.3722   117.1984 </r>
       <r>    19.5640     4.8291   117.4767 </r>
       <r>    19.6216     4.0827   117.7120 </r>
       <r>    19.6792     4.6409   117.9795 </r>
       <r>    19.7368     4.7685   118.2543 </r>
       <r>    19.7945     4.5138   118.5144 </r>
       <r>    19.8521     4.3750   118.7665 </r>
       <r>    19.9097     4.7758   119.0417 </r>
       <r>    19.9673     4.9246   119.3255 </r>
       <r>    20.0250     4.6759   119.5950 </r>
       <r>    20.0826     4.4888   119.8537 </r>
       <r>    20.1402     5.3850   120.1640 </r>
       <r>    20.1979     5.4360   120.4773 </r>
       <r>    20.2555     5.9715   120.8214 </r>
       <r>    20.3131     6.5757   121.2003 </r>
       <r>    20.3707     6.3261   121.5649 </r>
       <r>    20.4284     6.7151   121.9519 </r>
       <r>    20.4860     8.5362   122.4438 </r>
       <r>    20.5436     6.4599   122.8161 </r>
       <r>    20.6012     6.6579   123.1997 </r>
       <r>    20.6589     6.6004   123.5801 </r>
       <r>    20.7165     5.7369   123.9107 </r>
       <r>    20.7741     4.2752   124.1571 </r>
       <r>    20.8317     3.7656   124.3741 </r>
       <r>    20.8894     3.2044   124.5588 </r>
       <r>    20.9470     3.5903   124.7657 </r>
       <r>    21.0046     3.3360   124.9579 </r>
       <r>    21.0623     3.7462   125.1738 </r>
       <r>    21.1199     5.2291   125.4751 </r>
       <r>    21.1775     5.5598   125.7955 </r>
       <r>    21.2351     5.5334   126.1144 </r>
       <r>    21.2928     4.9497   126.3996 </r>
       <r>    21.3504     4.3888   126.6526 </r>
       <r>    21.4080     4.3555   126.9036 </r>
       <r>    21.4656     4.5744   127.1672 </r>
       <r>    21.5233     3.9891   127.3971 </r>
       <r>    21.5809     4.0451   127.6302 </r>
       <r>    21.6385     4.1429   127.8689 </r>
       <r>    21.6961     4.4946   128.1279 </r>
       <r>    21.7538     4.2077   128.3704 </r>
       <r>    21.8114     4.3057   128.6185 </r>
       <r>    21.8690     5.2267   128.9197 </r>
       <r>    21.9266     5.1135   129.2144 </r>
       <r>    21.9843     5.1971   129.5139 </r>
       <r>    22.0419     4.3608   129.7652 </r>
       <r>    22.0995     3.7237   129.9798 </r>
       <r>    22.1572     4.3621   130.2312 </r>
       <r>    22.2148     4.3517   130.4820 </r>
       <r>    22.2724     4.5801   130.7459 </r>
       <r>    22.3300     5.8409   131.0825 </r>
       <r>    22.3877     5.2296   131.3839 </r>
       <r>    22.4453     4.8221   131.6618 </r>
       <r>    22.5029     3.5115   131.8641 </r>
       <r>    22.5605     2.5977   132.0139 </r>
       <r>    22.6182     2.6336   132.1656 </r>
       <r>    22.6758     2.8518   132.3300 </r>
       <r>    22.7334     3.6445   132.5400 </r>
       <r>    22.7910     3.7072   132.7536 </r>
       <r>    22.8487     4.1504   132.9928 </r>
       <r>    22.9063     3.6046   133.2005 </r>
       <r>    22.9639     3.0828   133.3782 </r>
       <r>    23.0216     3.3124   133.5691 </r>
       <r>    23.0792     3.3117   133.7599 </r>
       <r>    23.1368     3.2104   133.9449 </r>
       <r>    23.1944     2.6712   134.0989 </r>
       <r>    23.2521     3.0255   134.2732 </r>
       <r>    23.3097     3.6945   134.4861 </r>
       <r>    23.3673     4.1017   134.7225 </r>
       <r>    23.4249     4.6764   134.9920 </r>
       <r>    23.4826     3.9951   135.2222 </r>
       <r>    23.5402     3.7781   135.4399 </r>
       <r>    23.5978     3.9857   135.6696 </r>
       <r>    23.6554     4.1236   135.9073 </r>
       <r>    23.7131     5.0626   136.1990 </r>
       <r>    23.7707     5.6588   136.5251 </r>
       <r>    23.8283     4.8809   136.8064 </r>
       <r>    23.8860     4.8107   137.0836 </r>
       <r>    23.9436     5.3659   137.3929 </r>
       <r>    24.0012     4.4357   137.6485 </r>
       <r>    24.0588     4.3711   137.9004 </r>
       <r>    24.1165     4.0788   138.1354 </r>
       <r>    24.1741     3.8945   138.3599 </r>
       <r>    24.2317     3.7553   138.5763 </r>
       <r>    24.2893     4.0887   138.8119 </r>
       <r>    24.3470     4.0324   139.0443 </r>
       <r>    24.4046     4.7514   139.3181 </r>
       <r>    24.4622     4.1208   139.5556 </r>
       <r>    24.5198     4.3400   139.8057 </r>
       <r>    24.5775     3.9388   140.0327 </r>
       <r>    24.6351     4.1680   140.2729 </r>
       <r>    24.6927     3.8537   140.4950 </r>
       <r>    24.7503     3.2215   140.6806 </r>
       <r>    24.8080     2.7442   140.8387 </r>
       <r>    24.8656     4.5479   141.1008 </r>
       <r>    24.9232     4.9105   141.3838 </r>
       <r>    24.9809     4.9954   141.6717 </r>
       <r>    25.0385     4.1171   141.9090 </r>
       <r>    25.0961     3.4400   142.1072 </r>
       <r>    25.1537     3.7185   142.3215 </r>
       <r>    25.2114     3.4077   142.5179 </r>
       <r>    25.2690     5.2108   142.8182 </r>
       <r>    25.3266     4.6480   143.0860 </r>
       <r>    25.3842     5.2988   143.3914 </r>
       <r>    25.4419     4.4644   143.6486 </r>
       <r>    25.4995     5.0110   143.9374 </r>
       <r>    25.5571     5.2290   144.2388 </r>
       <r>    25.6147     4.9020   144.5213 </r>
       <r>    25.6724     4.7183   144.7932 </r>
       <r>    25.7300     4.3869   145.0460 </r>
       <r>    25.7876     5.1349   145.3419 </r>
       <r>    25.8453     4.4483   145.5982 </r>
       <r>    25.9029     5.1634   145.8958 </r>
       <r>    25.9605     5.1403   146.1920 </r>
       <r>    26.0181     6.0015   146.5379 </r>
       <r>    26.0758     4.0124   146.7691 </r>
       <r>    26.1334     4.8987   147.0514 </r>
       <r>    26.1910     4.6147   147.3173 </r>
       <r>    26.2486     3.5632   147.5227 </r>
       <r>    26.3063     4.8486   147.8021 </r>
       <r>    26.3639     4.5678   148.0653 </r>
       <r>    26.4215     6.4818   148.4388 </r>
       <r>    26.4791     5.7810   148.7720 </r>
       <r>    26.5368     5.9816   149.1167 </r>
       <r>    26.5944     4.9680   149.4030 </r>
       <r>    26.6520     4.9566   149.6886 </r>
       <r>    26.7097     5.1721   149.9867 </r>
       <r>    26.7673     4.5323   150.2479 </r>
       <r>    26.8249     4.6902   150.5182 </r>
       <r>    26.8825     5.1672   150.8159 </r>
       <r>    26.9402     5.1204   151.1110 </r>
       <r>    26.9978     4.6072   151.3765 </r>
       <r>    27.0554     4.8489   151.6560 </r>
       <r>    27.1130     4.2608   151.9015 </r>
       <r>    27.1707     5.1246   152.1968 </r>
       <r>    27.2283     5.3072   152.5027 </r>
       <r>    27.2859     4.8167   152.7802 </r>
       <r>    27.3435     4.6058   153.0456 </r>
       <r>    27.4012     4.4453   153.3018 </r>
       <r>    27.4588     4.5357   153.5632 </r>
       <r>    27.5164     4.9103   153.8462 </r>
       <r>    27.5740     5.3054   154.1519 </r>
       <r>    27.6317     4.6863   154.4220 </r>
       <r>    27.6893     5.3198   154.7286 </r>
       <r>    27.7469     5.7789   155.0616 </r>
       <r>    27.8046     6.4968   155.4360 </r>
       <r>    27.8622     5.4259   155.7487 </r>
       <r>    27.9198     5.8255   156.0844 </r>
       <r>    27.9774     4.4300   156.3397 </r>
       <r>    28.0351     4.6926   156.6101 </r>
       <r>    28.0927     5.1896   156.9092 </r>
       <r>    28.1503     6.2813   157.2711 </r>
       <r>    28.2079     5.5943   157.5935 </r>
       <r>    28.2656     5.2203   157.8943 </r>
       <r>    28.3232     4.9700   158.1808 </r>
       <r>    28.3808     6.5340   158.5573 </r>
       <r>    28.4384     5.4588   158.8719 </r>
       <r>    28.4961     4.9648   159.1580 </r>
       <r>    28.5537     4.7555   159.4320 </r>
       <r>    28.6113     5.4882   159.7483 </r>
       <r>    28.6690     4.8543   160.0280 </r>
       <r>    28.7266     4.2079   160.2705 </r>
       <r>    28.7842     4.8908   160.5524 </r>
       <r>    28.8418     6.6510   160.9357 </r>
       <r>    28.8995     5.8969   161.2755 </r>
       <r>    28.9571     5.8614   161.6133 </r>
       <r>    29.0147     6.0434   161.9615 </r>
       <r>    29.0723     6.2632   162.3225 </r>
       <r>    29.1300     6.8817   162.7190 </r>
       <r>    29.1876     6.4987   163.0936 </r>
       <r>    29.2452     5.8095   163.4283 </r>
       <r>    29.3028     6.6375   163.8108 </r>
       <r>    29.3605     6.2670   164.1720 </r>
       <r>    29.4181     7.3796   164.5973 </r>
       <r>    29.4757     7.4952   165.0292 </r>
       <r>    29.5334     6.8161   165.4220 </r>
       <r>    29.5910     6.3984   165.7907 </r>
       <r>    29.6486     7.7071   166.2349 </r>
       <r>    29.7062     6.5189   166.6105 </r>
       <r>    29.7639     5.9637   166.9542 </r>
       <r>    29.8215     6.2336   167.3134 </r>
       <r>    29.8791     6.9039   167.7113 </r>
       <r>    29.9367     7.2708   168.1303 </r>
       <r>    29.9944     6.8999   168.5279 </r>
       <r>    30.0520     6.5123   168.9032 </r>
       <r>    30.1096     6.8533   169.2982 </r>
       <r>    30.1672     6.4749   169.6713 </r>
       <r>    30.2249     7.7880   170.1201 </r>
       <r>    30.2825     6.2475   170.4801 </r>
       <r>    30.3401     5.2861   170.7848 </r>
       <r>    30.3977     4.5490   171.0469 </r>
       <r>    30.4554     5.0222   171.3363 </r>
       <r>    30.5130     6.2668   171.6975 </r>
       <r>    30.5706     7.5301   172.1314 </r>
       <r>    30.6283     5.9598   172.4749 </r>
       <r>    30.6859     6.3078   172.8384 </r>
       <r>    30.7435     5.6585   173.1645 </r>
       <r>    30.8011     5.9492   173.5073 </r>
       <r>    30.8588     4.9135   173.7905 </r>
       <r>    30.9164     4.7538   174.0644 </r>
       <r>    30.9740     4.2308   174.3082 </r>
       <r>    31.0316     4.8136   174.5856 </r>
       <r>    31.0893     4.4083   174.8397 </r>
       <r>    31.1469     4.3304   175.0892 </r>
       <r>    31.2045     4.6083   175.3548 </r>
       <r>    31.2621     3.9201   175.5807 </r>
       <r>    31.3198     4.7666   175.8554 </r>
       <r>    31.3774     5.8859   176.1946 </r>
       <r>    31.4350     5.5755   176.5159 </r>
       <r>    31.4927     6.8192   176.9089 </r>
       <r>    31.5503     6.7328   177.2969 </r>
       <r>    31.6079     5.4387   177.6103 </r>
       <r>    31.6655     5.8288   177.9462 </r>
       <r>    31.7232     4.2782   178.1927 </r>
       <r>    31.7808     4.5452   178.4547 </r>
       <r>    31.8384     4.1359   178.6930 </r>
       <r>    31.8960     4.8686   178.9736 </r>
       <r>    31.9537     4.6836   179.2435 </r>
       <r>    32.0113     5.2123   179.5439 </r>
       <r>    32.0689     4.2172   179.7869 </r>
       <r>    32.1265     4.0664   180.0212 </r>
       <r>    32.1842     4.1078   180.2579 </r>
       <r>    32.2418     3.9980   180.4883 </r>
       <r>    32.2994     4.2317   180.7322 </r>
       <r>    32.3571     4.4495   180.9886 </r>
       <r>    32.4147     3.0398   181.1638 </r>
       <r>    32.4723     4.3707   181.4157 </r>
       <r>    32.5299     4.6265   181.6823 </r>
       <r>    32.5876     4.3674   181.9340 </r>
       <r>    32.6452     3.8302   182.1547 </r>
       <r>    32.7028     3.6766   182.3666 </r>
       <r>    32.7604     4.0672   182.6010 </r>
       <r>    32.8181     5.4074   182.9126 </r>
       <r>    32.8757     5.4566   183.2270 </r>
       <r>    32.9333     6.9092   183.6252 </r>
       <r>    32.9909     6.1074   183.9771 </r>
       <r>    33.0486     4.7487   184.2508 </r>
       <r>    33.1062     5.6729   184.5777 </r>
       <r>    33.1638     5.8067   184.9123 </r>
       <r>    33.2214     5.3991   185.2235 </r>
       <r>    33.2791     6.2896   185.5859 </r>
       <r>    33.3367     5.6679   185.9126 </r>
       <r>    33.3943     4.9126   186.1957 </r>
       <r>    33.4520     5.0042   186.4841 </r>
       <r>    33.5096     4.6911   186.7544 </r>
       <r>    33.5672     5.1901   187.0535 </r>
       <r>    33.6248     6.0314   187.4011 </r>
       <r>    33.6825     5.5907   187.7232 </r>
       <r>    33.7401     5.9953   188.0687 </r>
       <r>    33.7977     4.8887   188.3505 </r>
       <r>    33.8553     5.1876   188.6494 </r>
       <r>    33.9130     5.1798   188.9479 </r>
       <r>    33.9706     3.9994   189.1784 </r>
       <r>    34.0282     3.8770   189.4018 </r>
       <r>    34.0858     5.5741   189.7230 </r>
       <r>    34.1435     4.2515   189.9680 </r>
       <r>    34.2011     3.7445   190.1838 </r>
       <r>    34.2587     2.9645   190.3547 </r>
       <r>    34.3164     3.4066   190.5510 </r>
       <r>    34.3740     2.7599   190.7100 </r>
       <r>    34.4316     2.7584   190.8690 </r>
       <r>    34.4892     2.3459   191.0042 </r>
       <r>    34.5469     2.7499   191.1627 </r>
       <r>    34.6045     1.9714   191.2763 </r>
       <r>    34.6621     2.6958   191.4316 </r>
       <r>    34.7197     2.9039   191.5990 </r>
       <r>    34.7774     2.0055   191.7145 </r>
       <r>    34.8350     1.8084   191.8187 </r>
       <r>    34.8926     1.6017   191.9110 </r>
       <r>    34.9502     0.8439   191.9597 </r>
       <r>    35.0079     0.5380   191.9907 </r>
       <r>    35.0655     0.0297   191.9924 </r>
       <r>    35.1231     0.0908   191.9976 </r>
       <r>    35.1808     0.0413   192.0000 </r>
       <r>    35.2384     0.0000   192.0000 </r>
       <r>    35.2960     0.0000   192.0000 </r>
       <r>    35.3536     0.0000   192.0000 </r>
       <r>    35.4113     0.0000   192.0000 </r>
       <r>    35.4689     0.0000   192.0000 </r>
       <r>    35.5265     0.0000   192.0000 </r>
       <r>    35.5841     0.0000   192.0000 </r>
       <r>    35.6418     0.0000   192.0000 </r>
       <r>    35.6994     0.0000   192.0000 </r>
       <r>    35.7570     0.0000   192.0000 </r>
       <r>    35.8146     0.0000   192.0000 </r>
       <r>    35.8723     0.0000   192.0000 </r>
       <r>    35.9299     0.0000   192.0000 </r>
       <r>    35.9875     0.0000   192.0000 </r>
       <r>    36.0451     0.0000   192.0000 </r>
       <r>    36.1028     0.0000   192.0000 </r>
       <r>    36.1604     0.0000   192.0000 </r>
       <r>    36.2180     0.0000   192.0000 </r>
       <r>    36.2757     0.0000   192.0000 </r>
       <r>    36.3333     0.0000   192.0000 </r>
       <r>    36.3909     0.0000   192.0000 </r>
       <r>    36.4485     0.0000   192.0000 </r>
       <r>    36.5062     0.0000   192.0000 </r>
       <r>    36.5638     0.0000   192.0000 </r>
       <r>    36.6214     0.0000   192.0000 </r>
       <r>    36.6790     0.0000   192.0000 </r>
       <r>    36.7367     0.0000   192.0000 </r>
       <r>    36.7943     0.0000   192.0000 </r>
       <r>    36.8519     0.0000   192.0000 </r>
       <r>    36.9095     0.0000   192.0000 </r>
       <r>    36.9672     0.0000   192.0000 </r>
       <r>    37.0248     0.0000   192.0000 </r>
       <r>    37.0824     0.0000   192.0000 </r>
       <r>    37.1401     0.0000   192.0000 </r>
       <r>    37.1977     0.0000   192.0000 </r>
       <r>    37.2553     0.0000   192.0000 </r>
       <r>    37.3129     0.0000   192.0000 </r>
       <r>    37.3706     0.0000   192.0000 </r>
       <r>    37.4282     0.0000   192.0000 </r>
       <r>    37.4858     0.0000   192.0000 </r>
       <r>    37.5434     0.0000   192.0000 </r>
       <r>    37.6011     0.0000   192.0000 </r>
       <r>    37.6587     0.0000   192.0000 </r>
       <r>    37.7163     0.0000   192.0000 </r>
       <r>    37.7739     0.0000   192.0000 </r>
       <r>    37.8316     0.0000   192.0000 </r>
       <r>    37.8892     0.0000   192.0000 </r>
       <r>    37.9468     0.0000   192.0000 </r>
       <r>    38.0045     0.0000   192.0000 </r>
       <r>    38.0621     0.0000   192.0000 </r>
       <r>    38.1197     0.0000   192.0000 </r>
       <r>    38.1773     0.0000   192.0000 </r>
       <r>    38.2350     0.0000   192.0000 </r>
       <r>    38.2926     0.0000   192.0000 </r>
       <r>    38.3502     0.0000   192.0000 </r>
       <r>    38.4078     0.0000   192.0000 </r>
       <r>    38.4655     0.0000   192.0000 </r>
       <r>    38.5231     0.0000   192.0000 </r>
       <r>    38.5807     0.0000   192.0000 </r>
       <r>    38.6383     0.0000   192.0000 </r>
       <r>    38.6960     0.0000   192.0000 </r>
       <r>    38.7536     0.0000   192.0000 </r>
       <r>    38.8112     0.0000   192.0000 </r>
       <r>    38.8688     0.0000   192.0000 </r>
       <r>    38.9265     0.0000   192.0000 </r>
       <r>    38.9841     0.0000   192.0000 </r>
       <r>    39.0417     0.0000   192.0000 </r>
       <r>    39.0994     0.0000   192.0000 </r>
       <r>    39.1570     0.0000   192.0000 </r>
       <r>    39.2146     0.0000   192.0000 </r>
       <r>    39.2722     0.0000   192.0000 </r>
       <r>    39.3299     0.0000   192.0000 </r>
       <r>    39.3875     0.0000   192.0000 </r>
       <r>    39.4451     0.0000   192.0000 </r>
       <r>    39.5027     0.0000   192.0000 </r>
       <r>    39.5604     0.0000   192.0000 </r>
       <r>    39.6180     0.0000   192.0000 </r>
       <r>    39.6756     0.0000   192.0000 </r>
       <r>    39.7332     0.0000   192.0000 </r>
       <r>    39.7909     0.0000   192.0000 </r>
       <r>    39.8485     0.0000   192.0000 </r>
       <r>    39.9061     0.0000   192.0000 </r>
       <r>    39.9638     0.0000   192.0000 </r>
       <r>    40.0214     0.0000   192.0000 </r>
       <r>    40.0790     0.0000   192.0000 </r>
       <r>    40.1366     0.0000   192.0000 </r>
       <r>    40.1943     0.0000   192.0000 </r>
       <r>    40.2519     0.0000   192.0000 </r>
       <r>    40.3095     0.0000   192.0000 </r>
       <r>    40.3671     0.0000   192.0000 </r>
      </set>
     </set>
    </array>
   </total>
  </dos>
 </calculation>
 <structure name="finalpos" >
  <crystal>
   <varray name="basis" >
    <v>       2.74877081      -8.27960754      -0.03549010 </v>
    <v>       2.74877081       8.27960754      -0.03549010 </v>
    <v>      -2.61879281      -0.00000000       2.79207531 </v>
   </varray>
   <i name="volume">    125.54921836 </i>
   <varray name="rec_basis" >
    <v>       0.18412928      -0.06038934       0.17270181 </v>
    <v>       0.18412928       0.06038934       0.17270181 </v>
    <v>       0.00468094       0.00000000       0.36254696 </v>
   </varray>
  </crystal>
  <varray name="positions" >
   <v>       0.31160100       0.31160100       0.99361447 </v>
   <v>       0.81867928       0.81867928       0.00622646 </v>
   <v>       0.95022993       0.72501300       0.54905777 </v>
   <v>       0.72501300       0.95022993       0.54905777 </v>
   <v>       0.97443765       0.47907179       0.91780132 </v>
   <v>       0.47907179       0.97443765       0.91780132 </v>
   <v>       0.76477459       0.76477459       0.42849184 </v>
   <v>       0.35318703       0.00706909       0.35351141 </v>
   <v>       0.00706909       0.35318703       0.35351141 </v>
  </varray>
 </structure>
</modeling>
