   9   9   1   0
  0.1394991E+02  0.8724042E-09  0.8724042E-09  0.3828023E-09  0.5000000E-15
   1.0000000000000000E-004
  CAR 
 unknown system                          
     15.97535870    -73.66540409 2001      5.26398786      1.00000000
    -73.665  0.0000E+00  0.0000E+00
    -73.621  0.0000E+00  0.0000E+00
    -73.576  0.0000E+00  0.0000E+00
    -73.531  0.0000E+00  0.0000E+00
    -73.486  0.0000E+00  0.0000E+00
    -73.441  0.0000E+00  0.0000E+00
    -73.396  0.0000E+00  0.0000E+00
    -73.352  0.0000E+00  0.0000E+00
    -73.307  0.0000E+00  0.0000E+00
    -73.262  0.0000E+00  0.0000E+00
    -73.217  0.0000E+00  0.0000E+00
    -73.172  0.0000E+00  0.0000E+00
    -73.128  0.0000E+00  0.0000E+00
    -73.083  0.0000E+00  0.0000E+00
    -73.038  0.0000E+00  0.0000E+00
    -72.993  0.0000E+00  0.0000E+00
    -72.948  0.0000E+00  0.0000E+00
    -72.903  0.0000E+00  0.0000E+00
    -72.859  0.0000E+00  0.0000E+00
    -72.814  0.0000E+00  0.0000E+00
    -72.769  0.0000E+00  0.0000E+00
    -72.724  0.0000E+00  0.0000E+00
    -72.679  0.0000E+00  0.0000E+00
    -72.635  0.0000E+00  0.0000E+00
    -72.590  0.0000E+00  0.0000E+00
    -72.545  0.0000E+00  0.0000E+00
    -72.500  0.0000E+00  0.0000E+00
    -72.455  0.0000E+00  0.0000E+00
    -72.410  0.0000E+00  0.0000E+00
    -72.366  0.0000E+00  0.0000E+00
    -72.321  0.0000E+00  0.0000E+00
    -72.276  0.0000E+00  0.0000E+00
    -72.231  0.0000E+00  0.0000E+00
    -72.186  0.0000E+00  0.0000E+00
    -72.142  0.0000E+00  0.0000E+00
    -72.097  0.0000E+00  0.0000E+00
    -72.052  0.0000E+00  0.0000E+00
    -72.007  0.0000E+00  0.0000E+00
    -71.962  0.0000E+00  0.0000E+00
    -71.917  0.0000E+00  0.0000E+00
    -71.873  0.0000E+00  0.0000E+00
    -71.828  0.0000E+00  0.0000E+00
    -71.783  0.0000E+00  0.0000E+00
    -71.738  0.0000E+00  0.0000E+00
    -71.693  0.0000E+00  0.0000E+00
    -71.648  0.0000E+00  0.0000E+00
    -71.604  0.0000E+00  0.0000E+00
    -71.559  0.0000E+00  0.0000E+00
    -71.514  0.0000E+00  0.0000E+00
    -71.469  0.0000E+00  0.0000E+00
    -71.424  0.0000E+00  0.0000E+00
    -71.380  0.0000E+00  0.0000E+00
    -71.335  0.0000E+00  0.0000E+00
    -71.290  0.0000E+00  0.0000E+00
    -71.245  0.0000E+00  0.0000E+00
    -71.200  0.0000E+00  0.0000E+00
    -71.155  0.0000E+00  0.0000E+00
    -71.111  0.0000E+00  0.0000E+00
    -71.066  0.0000E+00  0.0000E+00
    -71.021  0.0000E+00  0.0000E+00
    -70.976  0.0000E+00  0.0000E+00
    -70.931  0.0000E+00  0.0000E+00
    -70.887  0.0000E+00  0.0000E+00
    -70.842  0.0000E+00  0.0000E+00
    -70.797  0.0000E+00  0.0000E+00
    -70.752  0.0000E+00  0.0000E+00
    -70.707  0.0000E+00  0.0000E+00
    -70.662  0.0000E+00  0.0000E+00
    -70.618  0.0000E+00  0.0000E+00
    -70.573  0.0000E+00  0.0000E+00
    -70.528  0.0000E+00  0.0000E+00
    -70.483  0.0000E+00  0.0000E+00
    -70.438  0.0000E+00  0.0000E+00
    -70.394  0.0000E+00  0.0000E+00
    -70.349  0.0000E+00  0.0000E+00
    -70.304  0.0000E+00  0.0000E+00
    -70.259  0.0000E+00  0.0000E+00
    -70.214  0.0000E+00  0.0000E+00
    -70.169  0.0000E+00  0.0000E+00
    -70.125  0.0000E+00  0.0000E+00
    -70.080  0.0000E+00  0.0000E+00
    -70.035  0.0000E+00  0.0000E+00
    -69.990  0.0000E+00  0.0000E+00
    -69.945  0.0000E+00  0.0000E+00
    -69.900  0.0000E+00  0.0000E+00
    -69.856  0.1374E-11  0.6158E-13
    -69.811  0.9951E-08  0.4461E-09
    -69.766  0.1498E-04  0.6719E-06
    -69.721  0.4765E-02  0.2142E-03
    -69.676  0.3284E+00  0.1494E-01
    -69.632  0.5100E+01  0.2435E+00
    -69.587  0.1868E+02  0.1081E+01
    -69.542  0.1669E+02  0.1829E+01
    -69.497  0.3628E+01  0.1992E+01
    -69.452  0.1846E+00  0.2000E+01
    -69.407  0.2102E-02  0.2000E+01
    -69.363  0.5161E-05  0.2000E+01
    -69.318  0.2668E-08  0.2000E+01
    -69.273  0.2864E-12  0.2000E+01
    -69.228  0.0000E+00  0.2000E+01
    -69.183  0.0000E+00  0.2000E+01
    -69.139  0.0000E+00  0.2000E+01
    -69.094  0.0000E+00  0.2000E+01
    -69.049  0.0000E+00  0.2000E+01
    -69.004  0.0000E+00  0.2000E+01
    -68.959  0.0000E+00  0.2000E+01
    -68.914  0.0000E+00  0.2000E+01
    -68.870  0.0000E+00  0.2000E+01
    -68.825  0.0000E+00  0.2000E+01
    -68.780  0.0000E+00  0.2000E+01
    -68.735  0.0000E+00  0.2000E+01
    -68.690  0.0000E+00  0.2000E+01
    -68.646  0.0000E+00  0.2000E+01
    -68.601  0.0000E+00  0.2000E+01
    -68.556  0.0000E+00  0.2000E+01
    -68.511  0.0000E+00  0.2000E+01
    -68.466  0.0000E+00  0.2000E+01
    -68.421  0.0000E+00  0.2000E+01
    -68.377  0.0000E+00  0.2000E+01
    -68.332  0.0000E+00  0.2000E+01
    -68.287  0.0000E+00  0.2000E+01
    -68.242  0.0000E+00  0.2000E+01
    -68.197  0.0000E+00  0.2000E+01
    -68.152  0.0000E+00  0.2000E+01
    -68.108  0.0000E+00  0.2000E+01
    -68.063  0.0000E+00  0.2000E+01
    -68.018  0.0000E+00  0.2000E+01
    -67.973  0.0000E+00  0.2000E+01
    -67.928  0.0000E+00  0.2000E+01
    -67.884  0.0000E+00  0.2000E+01
    -67.839  0.0000E+00  0.2000E+01
    -67.794  0.0000E+00  0.2000E+01
    -67.749  0.0000E+00  0.2000E+01
    -67.704  0.0000E+00  0.2000E+01
    -67.659  0.0000E+00  0.2000E+01
    -67.615  0.0000E+00  0.2000E+01
    -67.570  0.0000E+00  0.2000E+01
    -67.525  0.0000E+00  0.2000E+01
    -67.480  0.0000E+00  0.2000E+01
    -67.435  0.0000E+00  0.2000E+01
    -67.391  0.0000E+00  0.2000E+01
    -67.346  0.0000E+00  0.2000E+01
    -67.301  0.0000E+00  0.2000E+01
    -67.256  0.0000E+00  0.2000E+01
    -67.211  0.0000E+00  0.2000E+01
    -67.166  0.0000E+00  0.2000E+01
    -67.122  0.0000E+00  0.2000E+01
    -67.077  0.0000E+00  0.2000E+01
    -67.032  0.0000E+00  0.2000E+01
    -66.987  0.0000E+00  0.2000E+01
    -66.942  0.0000E+00  0.2000E+01
    -66.898  0.0000E+00  0.2000E+01
    -66.853  0.0000E+00  0.2000E+01
    -66.808  0.0000E+00  0.2000E+01
    -66.763  0.0000E+00  0.2000E+01
    -66.718  0.0000E+00  0.2000E+01
    -66.673  0.0000E+00  0.2000E+01
    -66.629  0.0000E+00  0.2000E+01
    -66.584  0.0000E+00  0.2000E+01
    -66.539  0.0000E+00  0.2000E+01
    -66.494  0.0000E+00  0.2000E+01
    -66.449  0.0000E+00  0.2000E+01
    -66.405  0.0000E+00  0.2000E+01
    -66.360  0.0000E+00  0.2000E+01
    -66.315  0.0000E+00  0.2000E+01
    -66.270  0.0000E+00  0.2000E+01
    -66.225  0.0000E+00  0.2000E+01
    -66.180  0.0000E+00  0.2000E+01
    -66.136  0.0000E+00  0.2000E+01
    -66.091  0.0000E+00  0.2000E+01
    -66.046  0.0000E+00  0.2000E+01
    -66.001  0.0000E+00  0.2000E+01
    -65.956  0.0000E+00  0.2000E+01
    -65.911  0.0000E+00  0.2000E+01
    -65.867  0.0000E+00  0.2000E+01
    -65.822  0.0000E+00  0.2000E+01
    -65.777  0.0000E+00  0.2000E+01
    -65.732  0.0000E+00  0.2000E+01
    -65.687  0.0000E+00  0.2000E+01
    -65.643  0.0000E+00  0.2000E+01
    -65.598  0.0000E+00  0.2000E+01
    -65.553  0.0000E+00  0.2000E+01
    -65.508  0.0000E+00  0.2000E+01
    -65.463  0.0000E+00  0.2000E+01
    -65.418  0.0000E+00  0.2000E+01
    -65.374  0.0000E+00  0.2000E+01
    -65.329  0.0000E+00  0.2000E+01
    -65.284  0.0000E+00  0.2000E+01
    -65.239  0.0000E+00  0.2000E+01
    -65.194  0.0000E+00  0.2000E+01
    -65.150  0.0000E+00  0.2000E+01
    -65.105  0.0000E+00  0.2000E+01
    -65.060  0.0000E+00  0.2000E+01
    -65.015  0.0000E+00  0.2000E+01
    -64.970  0.0000E+00  0.2000E+01
    -64.925  0.0000E+00  0.2000E+01
    -64.881  0.0000E+00  0.2000E+01
    -64.836  0.0000E+00  0.2000E+01
    -64.791  0.0000E+00  0.2000E+01
    -64.746  0.0000E+00  0.2000E+01
    -64.701  0.0000E+00  0.2000E+01
    -64.657  0.0000E+00  0.2000E+01
    -64.612  0.0000E+00  0.2000E+01
    -64.567  0.0000E+00  0.2000E+01
    -64.522  0.0000E+00  0.2000E+01
    -64.477  0.0000E+00  0.2000E+01
    -64.432  0.0000E+00  0.2000E+01
    -64.388  0.0000E+00  0.2000E+01
    -64.343  0.0000E+00  0.2000E+01
    -64.298  0.0000E+00  0.2000E+01
    -64.253  0.0000E+00  0.2000E+01
    -64.208  0.0000E+00  0.2000E+01
    -64.163  0.0000E+00  0.2000E+01
    -64.119  0.0000E+00  0.2000E+01
    -64.074  0.0000E+00  0.2000E+01
    -64.029  0.0000E+00  0.2000E+01
    -63.984  0.0000E+00  0.2000E+01
    -63.939  0.0000E+00  0.2000E+01
    -63.895  0.0000E+00  0.2000E+01
    -63.850  0.0000E+00  0.2000E+01
    -63.805  0.0000E+00  0.2000E+01
    -63.760  0.0000E+00  0.2000E+01
    -63.715  0.0000E+00  0.2000E+01
    -63.670  0.0000E+00  0.2000E+01
    -63.626  0.0000E+00  0.2000E+01
    -63.581  0.0000E+00  0.2000E+01
    -63.536  0.0000E+00  0.2000E+01
    -63.491  0.0000E+00  0.2000E+01
    -63.446  0.0000E+00  0.2000E+01
    -63.402  0.0000E+00  0.2000E+01
    -63.357  0.0000E+00  0.2000E+01
    -63.312  0.0000E+00  0.2000E+01
    -63.267  0.0000E+00  0.2000E+01
    -63.222  0.0000E+00  0.2000E+01
    -63.177  0.0000E+00  0.2000E+01
    -63.133  0.0000E+00  0.2000E+01
    -63.088  0.0000E+00  0.2000E+01
    -63.043  0.0000E+00  0.2000E+01
    -62.998  0.0000E+00  0.2000E+01
    -62.953  0.0000E+00  0.2000E+01
    -62.909  0.0000E+00  0.2000E+01
    -62.864  0.0000E+00  0.2000E+01
    -62.819  0.0000E+00  0.2000E+01
    -62.774  0.0000E+00  0.2000E+01
    -62.729  0.0000E+00  0.2000E+01
    -62.684  0.0000E+00  0.2000E+01
    -62.640  0.0000E+00  0.2000E+01
    -62.595  0.0000E+00  0.2000E+01
    -62.550  0.0000E+00  0.2000E+01
    -62.505  0.0000E+00  0.2000E+01
    -62.460  0.0000E+00  0.2000E+01
    -62.415  0.0000E+00  0.2000E+01
    -62.371  0.0000E+00  0.2000E+01
    -62.326  0.0000E+00  0.2000E+01
    -62.281  0.0000E+00  0.2000E+01
    -62.236  0.0000E+00  0.2000E+01
    -62.191  0.0000E+00  0.2000E+01
    -62.147  0.0000E+00  0.2000E+01
    -62.102  0.0000E+00  0.2000E+01
    -62.057  0.0000E+00  0.2000E+01
    -62.012  0.0000E+00  0.2000E+01
    -61.967  0.0000E+00  0.2000E+01
    -61.922  0.0000E+00  0.2000E+01
    -61.878  0.0000E+00  0.2000E+01
    -61.833  0.0000E+00  0.2000E+01
    -61.788  0.0000E+00  0.2000E+01
    -61.743  0.0000E+00  0.2000E+01
    -61.698  0.0000E+00  0.2000E+01
    -61.654  0.0000E+00  0.2000E+01
    -61.609  0.0000E+00  0.2000E+01
    -61.564  0.0000E+00  0.2000E+01
    -61.519  0.0000E+00  0.2000E+01
    -61.474  0.0000E+00  0.2000E+01
    -61.429  0.0000E+00  0.2000E+01
    -61.385  0.0000E+00  0.2000E+01
    -61.340  0.0000E+00  0.2000E+01
    -61.295  0.0000E+00  0.2000E+01
    -61.250  0.0000E+00  0.2000E+01
    -61.205  0.0000E+00  0.2000E+01
    -61.161  0.0000E+00  0.2000E+01
    -61.116  0.0000E+00  0.2000E+01
    -61.071  0.0000E+00  0.2000E+01
    -61.026  0.0000E+00  0.2000E+01
    -60.981  0.0000E+00  0.2000E+01
    -60.936  0.0000E+00  0.2000E+01
    -60.892  0.0000E+00  0.2000E+01
    -60.847  0.0000E+00  0.2000E+01
    -60.802  0.0000E+00  0.2000E+01
    -60.757  0.0000E+00  0.2000E+01
    -60.712  0.0000E+00  0.2000E+01
    -60.667  0.0000E+00  0.2000E+01
    -60.623  0.0000E+00  0.2000E+01
    -60.578  0.0000E+00  0.2000E+01
    -60.533  0.0000E+00  0.2000E+01
    -60.488  0.0000E+00  0.2000E+01
    -60.443  0.0000E+00  0.2000E+01
    -60.399  0.0000E+00  0.2000E+01
    -60.354  0.0000E+00  0.2000E+01
    -60.309  0.0000E+00  0.2000E+01
    -60.264  0.0000E+00  0.2000E+01
    -60.219  0.0000E+00  0.2000E+01
    -60.174  0.0000E+00  0.2000E+01
    -60.130  0.0000E+00  0.2000E+01
    -60.085  0.0000E+00  0.2000E+01
    -60.040  0.0000E+00  0.2000E+01
    -59.995  0.0000E+00  0.2000E+01
    -59.950  0.0000E+00  0.2000E+01
    -59.906  0.0000E+00  0.2000E+01
    -59.861  0.0000E+00  0.2000E+01
    -59.816  0.0000E+00  0.2000E+01
    -59.771  0.0000E+00  0.2000E+01
    -59.726  0.0000E+00  0.2000E+01
    -59.681  0.0000E+00  0.2000E+01
    -59.637  0.0000E+00  0.2000E+01
    -59.592  0.0000E+00  0.2000E+01
    -59.547  0.0000E+00  0.2000E+01
    -59.502  0.0000E+00  0.2000E+01
    -59.457  0.0000E+00  0.2000E+01
    -59.413  0.0000E+00  0.2000E+01
    -59.368  0.0000E+00  0.2000E+01
    -59.323  0.0000E+00  0.2000E+01
    -59.278  0.0000E+00  0.2000E+01
    -59.233  0.0000E+00  0.2000E+01
    -59.188  0.0000E+00  0.2000E+01
    -59.144  0.0000E+00  0.2000E+01
    -59.099  0.0000E+00  0.2000E+01
    -59.054  0.0000E+00  0.2000E+01
    -59.009  0.0000E+00  0.2000E+01
    -58.964  0.0000E+00  0.2000E+01
    -58.919  0.0000E+00  0.2000E+01
    -58.875  0.0000E+00  0.2000E+01
    -58.830  0.0000E+00  0.2000E+01
    -58.785  0.0000E+00  0.2000E+01
    -58.740  0.0000E+00  0.2000E+01
    -58.695  0.0000E+00  0.2000E+01
    -58.651  0.0000E+00  0.2000E+01
    -58.606  0.0000E+00  0.2000E+01
    -58.561  0.0000E+00  0.2000E+01
    -58.516  0.0000E+00  0.2000E+01
    -58.471  0.0000E+00  0.2000E+01
    -58.426  0.0000E+00  0.2000E+01
    -58.382  0.0000E+00  0.2000E+01
    -58.337  0.0000E+00  0.2000E+01
    -58.292  0.0000E+00  0.2000E+01
    -58.247  0.0000E+00  0.2000E+01
    -58.202  0.0000E+00  0.2000E+01
    -58.158  0.0000E+00  0.2000E+01
    -58.113  0.0000E+00  0.2000E+01
    -58.068  0.0000E+00  0.2000E+01
    -58.023  0.0000E+00  0.2000E+01
    -57.978  0.0000E+00  0.2000E+01
    -57.933  0.0000E+00  0.2000E+01
    -57.889  0.0000E+00  0.2000E+01
    -57.844  0.0000E+00  0.2000E+01
    -57.799  0.0000E+00  0.2000E+01
    -57.754  0.0000E+00  0.2000E+01
    -57.709  0.0000E+00  0.2000E+01
    -57.665  0.0000E+00  0.2000E+01
    -57.620  0.0000E+00  0.2000E+01
    -57.575  0.0000E+00  0.2000E+01
    -57.530  0.0000E+00  0.2000E+01
    -57.485  0.0000E+00  0.2000E+01
    -57.440  0.0000E+00  0.2000E+01
    -57.396  0.0000E+00  0.2000E+01
    -57.351  0.0000E+00  0.2000E+01
    -57.306  0.0000E+00  0.2000E+01
    -57.261  0.0000E+00  0.2000E+01
    -57.216  0.0000E+00  0.2000E+01
    -57.172  0.0000E+00  0.2000E+01
    -57.127  0.0000E+00  0.2000E+01
    -57.082  0.0000E+00  0.2000E+01
    -57.037  0.0000E+00  0.2000E+01
    -56.992  0.0000E+00  0.2000E+01
    -56.947  0.0000E+00  0.2000E+01
    -56.903  0.0000E+00  0.2000E+01
    -56.858  0.0000E+00  0.2000E+01
    -56.813  0.0000E+00  0.2000E+01
    -56.768  0.0000E+00  0.2000E+01
    -56.723  0.0000E+00  0.2000E+01
    -56.678  0.0000E+00  0.2000E+01
    -56.634  0.0000E+00  0.2000E+01
    -56.589  0.0000E+00  0.2000E+01
    -56.544  0.0000E+00  0.2000E+01
    -56.499  0.0000E+00  0.2000E+01
    -56.454  0.0000E+00  0.2000E+01
    -56.410  0.0000E+00  0.2000E+01
    -56.365  0.0000E+00  0.2000E+01
    -56.320  0.0000E+00  0.2000E+01
    -56.275  0.0000E+00  0.2000E+01
    -56.230  0.0000E+00  0.2000E+01
    -56.185  0.0000E+00  0.2000E+01
    -56.141  0.0000E+00  0.2000E+01
    -56.096  0.0000E+00  0.2000E+01
    -56.051  0.0000E+00  0.2000E+01
    -56.006  0.0000E+00  0.2000E+01
    -55.961  0.0000E+00  0.2000E+01
    -55.917  0.0000E+00  0.2000E+01
    -55.872  0.0000E+00  0.2000E+01
    -55.827  0.0000E+00  0.2000E+01
    -55.782  0.0000E+00  0.2000E+01
    -55.737  0.0000E+00  0.2000E+01
    -55.692  0.0000E+00  0.2000E+01
    -55.648  0.0000E+00  0.2000E+01
    -55.603  0.0000E+00  0.2000E+01
    -55.558  0.0000E+00  0.2000E+01
    -55.513  0.0000E+00  0.2000E+01
    -55.468  0.0000E+00  0.2000E+01
    -55.424  0.0000E+00  0.2000E+01
    -55.379  0.0000E+00  0.2000E+01
    -55.334  0.0000E+00  0.2000E+01
    -55.289  0.0000E+00  0.2000E+01
    -55.244  0.0000E+00  0.2000E+01
    -55.199  0.0000E+00  0.2000E+01
    -55.155  0.0000E+00  0.2000E+01
    -55.110  0.0000E+00  0.2000E+01
    -55.065  0.0000E+00  0.2000E+01
    -55.020  0.0000E+00  0.2000E+01
    -54.975  0.0000E+00  0.2000E+01
    -54.930  0.0000E+00  0.2000E+01
    -54.886  0.0000E+00  0.2000E+01
    -54.841  0.0000E+00  0.2000E+01
    -54.796  0.0000E+00  0.2000E+01
    -54.751  0.0000E+00  0.2000E+01
    -54.706  0.0000E+00  0.2000E+01
    -54.662  0.0000E+00  0.2000E+01
    -54.617  0.0000E+00  0.2000E+01
    -54.572  0.0000E+00  0.2000E+01
    -54.527  0.0000E+00  0.2000E+01
    -54.482  0.0000E+00  0.2000E+01
    -54.437  0.0000E+00  0.2000E+01
    -54.393  0.0000E+00  0.2000E+01
    -54.348  0.0000E+00  0.2000E+01
    -54.303  0.0000E+00  0.2000E+01
    -54.258  0.0000E+00  0.2000E+01
    -54.213  0.0000E+00  0.2000E+01
    -54.169  0.0000E+00  0.2000E+01
    -54.124  0.0000E+00  0.2000E+01
    -54.079  0.0000E+00  0.2000E+01
    -54.034  0.0000E+00  0.2000E+01
    -53.989  0.0000E+00  0.2000E+01
    -53.944  0.0000E+00  0.2000E+01
    -53.900  0.0000E+00  0.2000E+01
    -53.855  0.0000E+00  0.2000E+01
    -53.810  0.0000E+00  0.2000E+01
    -53.765  0.0000E+00  0.2000E+01
    -53.720  0.0000E+00  0.2000E+01
    -53.676  0.0000E+00  0.2000E+01
    -53.631  0.0000E+00  0.2000E+01
    -53.586  0.0000E+00  0.2000E+01
    -53.541  0.0000E+00  0.2000E+01
    -53.496  0.0000E+00  0.2000E+01
    -53.451  0.0000E+00  0.2000E+01
    -53.407  0.0000E+00  0.2000E+01
    -53.362  0.0000E+00  0.2000E+01
    -53.317  0.0000E+00  0.2000E+01
    -53.272  0.0000E+00  0.2000E+01
    -53.227  0.0000E+00  0.2000E+01
    -53.182  0.0000E+00  0.2000E+01
    -53.138  0.0000E+00  0.2000E+01
    -53.093  0.0000E+00  0.2000E+01
    -53.048  0.0000E+00  0.2000E+01
    -53.003  0.0000E+00  0.2000E+01
    -52.958  0.0000E+00  0.2000E+01
    -52.914  0.0000E+00  0.2000E+01
    -52.869  0.0000E+00  0.2000E+01
    -52.824  0.0000E+00  0.2000E+01
    -52.779  0.0000E+00  0.2000E+01
    -52.734  0.0000E+00  0.2000E+01
    -52.689  0.0000E+00  0.2000E+01
    -52.645  0.0000E+00  0.2000E+01
    -52.600  0.0000E+00  0.2000E+01
    -52.555  0.0000E+00  0.2000E+01
    -52.510  0.0000E+00  0.2000E+01
    -52.465  0.0000E+00  0.2000E+01
    -52.421  0.0000E+00  0.2000E+01
    -52.376  0.0000E+00  0.2000E+01
    -52.331  0.0000E+00  0.2000E+01
    -52.286  0.0000E+00  0.2000E+01
    -52.241  0.0000E+00  0.2000E+01
    -52.196  0.0000E+00  0.2000E+01
    -52.152  0.0000E+00  0.2000E+01
    -52.107  0.0000E+00  0.2000E+01
    -52.062  0.0000E+00  0.2000E+01
    -52.017  0.0000E+00  0.2000E+01
    -51.972  0.0000E+00  0.2000E+01
    -51.928  0.0000E+00  0.2000E+01
    -51.883  0.0000E+00  0.2000E+01
    -51.838  0.0000E+00  0.2000E+01
    -51.793  0.0000E+00  0.2000E+01
    -51.748  0.0000E+00  0.2000E+01
    -51.703  0.0000E+00  0.2000E+01
    -51.659  0.0000E+00  0.2000E+01
    -51.614  0.0000E+00  0.2000E+01
    -51.569  0.0000E+00  0.2000E+01
    -51.524  0.0000E+00  0.2000E+01
    -51.479  0.0000E+00  0.2000E+01
    -51.434  0.0000E+00  0.2000E+01
    -51.390  0.0000E+00  0.2000E+01
    -51.345  0.0000E+00  0.2000E+01
    -51.300  0.0000E+00  0.2000E+01
    -51.255  0.0000E+00  0.2000E+01
    -51.210  0.0000E+00  0.2000E+01
    -51.166  0.0000E+00  0.2000E+01
    -51.121  0.0000E+00  0.2000E+01
    -51.076  0.0000E+00  0.2000E+01
    -51.031  0.0000E+00  0.2000E+01
    -50.986  0.0000E+00  0.2000E+01
    -50.941  0.0000E+00  0.2000E+01
    -50.897  0.0000E+00  0.2000E+01
    -50.852  0.0000E+00  0.2000E+01
    -50.807  0.0000E+00  0.2000E+01
    -50.762  0.0000E+00  0.2000E+01
    -50.717  0.0000E+00  0.2000E+01
    -50.673  0.0000E+00  0.2000E+01
    -50.628  0.0000E+00  0.2000E+01
    -50.583  0.0000E+00  0.2000E+01
    -50.538  0.0000E+00  0.2000E+01
    -50.493  0.0000E+00  0.2000E+01
    -50.448  0.0000E+00  0.2000E+01
    -50.404  0.0000E+00  0.2000E+01
    -50.359  0.0000E+00  0.2000E+01
    -50.314  0.0000E+00  0.2000E+01
    -50.269  0.0000E+00  0.2000E+01
    -50.224  0.0000E+00  0.2000E+01
    -50.180  0.0000E+00  0.2000E+01
    -50.135  0.0000E+00  0.2000E+01
    -50.090  0.0000E+00  0.2000E+01
    -50.045  0.0000E+00  0.2000E+01
    -50.000  0.0000E+00  0.2000E+01
    -49.955  0.0000E+00  0.2000E+01
    -49.911  0.0000E+00  0.2000E+01
    -49.866  0.0000E+00  0.2000E+01
    -49.821  0.0000E+00  0.2000E+01
    -49.776  0.0000E+00  0.2000E+01
    -49.731  0.0000E+00  0.2000E+01
    -49.687  0.0000E+00  0.2000E+01
    -49.642  0.0000E+00  0.2000E+01
    -49.597  0.0000E+00  0.2000E+01
    -49.552  0.0000E+00  0.2000E+01
    -49.507  0.0000E+00  0.2000E+01
    -49.462  0.0000E+00  0.2000E+01
    -49.418  0.0000E+00  0.2000E+01
    -49.373  0.0000E+00  0.2000E+01
    -49.328  0.0000E+00  0.2000E+01
    -49.283  0.0000E+00  0.2000E+01
    -49.238  0.0000E+00  0.2000E+01
    -49.193  0.0000E+00  0.2000E+01
    -49.149  0.0000E+00  0.2000E+01
    -49.104  0.0000E+00  0.2000E+01
    -49.059  0.0000E+00  0.2000E+01
    -49.014  0.0000E+00  0.2000E+01
    -48.969  0.0000E+00  0.2000E+01
    -48.925  0.0000E+00  0.2000E+01
    -48.880  0.0000E+00  0.2000E+01
    -48.835  0.0000E+00  0.2000E+01
    -48.790  0.0000E+00  0.2000E+01
    -48.745  0.0000E+00  0.2000E+01
    -48.700  0.0000E+00  0.2000E+01
    -48.656  0.0000E+00  0.2000E+01
    -48.611  0.0000E+00  0.2000E+01
    -48.566  0.0000E+00  0.2000E+01
    -48.521  0.0000E+00  0.2000E+01
    -48.476  0.0000E+00  0.2000E+01
    -48.432  0.0000E+00  0.2000E+01
    -48.387  0.0000E+00  0.2000E+01
    -48.342  0.0000E+00  0.2000E+01
    -48.297  0.0000E+00  0.2000E+01
    -48.252  0.0000E+00  0.2000E+01
    -48.207  0.0000E+00  0.2000E+01
    -48.163  0.0000E+00  0.2000E+01
    -48.118  0.0000E+00  0.2000E+01
    -48.073  0.0000E+00  0.2000E+01
    -48.028  0.0000E+00  0.2000E+01
    -47.983  0.0000E+00  0.2000E+01
    -47.939  0.0000E+00  0.2000E+01
    -47.894  0.0000E+00  0.2000E+01
    -47.849  0.0000E+00  0.2000E+01
    -47.804  0.0000E+00  0.2000E+01
    -47.759  0.0000E+00  0.2000E+01
    -47.714  0.0000E+00  0.2000E+01
    -47.670  0.0000E+00  0.2000E+01
    -47.625  0.0000E+00  0.2000E+01
    -47.580  0.0000E+00  0.2000E+01
    -47.535  0.0000E+00  0.2000E+01
    -47.490  0.0000E+00  0.2000E+01
    -47.445  0.0000E+00  0.2000E+01
    -47.401  0.0000E+00  0.2000E+01
    -47.356  0.0000E+00  0.2000E+01
    -47.311  0.0000E+00  0.2000E+01
    -47.266  0.0000E+00  0.2000E+01
    -47.221  0.0000E+00  0.2000E+01
    -47.177  0.0000E+00  0.2000E+01
    -47.132  0.0000E+00  0.2000E+01
    -47.087  0.0000E+00  0.2000E+01
    -47.042  0.0000E+00  0.2000E+01
    -46.997  0.0000E+00  0.2000E+01
    -46.952  0.0000E+00  0.2000E+01
    -46.908  0.0000E+00  0.2000E+01
    -46.863  0.0000E+00  0.2000E+01
    -46.818  0.0000E+00  0.2000E+01
    -46.773  0.0000E+00  0.2000E+01
    -46.728  0.0000E+00  0.2000E+01
    -46.684  0.0000E+00  0.2000E+01
    -46.639  0.0000E+00  0.2000E+01
    -46.594  0.0000E+00  0.2000E+01
    -46.549  0.0000E+00  0.2000E+01
    -46.504  0.0000E+00  0.2000E+01
    -46.459  0.0000E+00  0.2000E+01
    -46.415  0.0000E+00  0.2000E+01
    -46.370  0.0000E+00  0.2000E+01
    -46.325  0.0000E+00  0.2000E+01
    -46.280  0.0000E+00  0.2000E+01
    -46.235  0.0000E+00  0.2000E+01
    -46.191  0.0000E+00  0.2000E+01
    -46.146  0.0000E+00  0.2000E+01
    -46.101  0.0000E+00  0.2000E+01
    -46.056  0.0000E+00  0.2000E+01
    -46.011  0.0000E+00  0.2000E+01
    -45.966  0.0000E+00  0.2000E+01
    -45.922  0.0000E+00  0.2000E+01
    -45.877  0.0000E+00  0.2000E+01
    -45.832  0.0000E+00  0.2000E+01
    -45.787  0.0000E+00  0.2000E+01
    -45.742  0.0000E+00  0.2000E+01
    -45.697  0.0000E+00  0.2000E+01
    -45.653  0.0000E+00  0.2000E+01
    -45.608  0.0000E+00  0.2000E+01
    -45.563  0.0000E+00  0.2000E+01
    -45.518  0.0000E+00  0.2000E+01
    -45.473  0.0000E+00  0.2000E+01
    -45.429  0.0000E+00  0.2000E+01
    -45.384  0.0000E+00  0.2000E+01
    -45.339  0.0000E+00  0.2000E+01
    -45.294  0.0000E+00  0.2000E+01
    -45.249  0.0000E+00  0.2000E+01
    -45.204  0.0000E+00  0.2000E+01
    -45.160  0.0000E+00  0.2000E+01
    -45.115  0.0000E+00  0.2000E+01
    -45.070  0.0000E+00  0.2000E+01
    -45.025  0.0000E+00  0.2000E+01
    -44.980  0.0000E+00  0.2000E+01
    -44.936  0.0000E+00  0.2000E+01
    -44.891  0.0000E+00  0.2000E+01
    -44.846  0.0000E+00  0.2000E+01
    -44.801  0.0000E+00  0.2000E+01
    -44.756  0.0000E+00  0.2000E+01
    -44.711  0.0000E+00  0.2000E+01
    -44.667  0.0000E+00  0.2000E+01
    -44.622  0.0000E+00  0.2000E+01
    -44.577  0.0000E+00  0.2000E+01
    -44.532  0.0000E+00  0.2000E+01
    -44.487  0.0000E+00  0.2000E+01
    -44.443  0.0000E+00  0.2000E+01
    -44.398  0.0000E+00  0.2000E+01
    -44.353  0.0000E+00  0.2000E+01
    -44.308  0.0000E+00  0.2000E+01
    -44.263  0.0000E+00  0.2000E+01
    -44.218  0.0000E+00  0.2000E+01
    -44.174  0.0000E+00  0.2000E+01
    -44.129  0.0000E+00  0.2000E+01
    -44.084  0.0000E+00  0.2000E+01
    -44.039  0.0000E+00  0.2000E+01
    -43.994  0.0000E+00  0.2000E+01
    -43.949  0.0000E+00  0.2000E+01
    -43.905  0.0000E+00  0.2000E+01
    -43.860  0.0000E+00  0.2000E+01
    -43.815  0.0000E+00  0.2000E+01
    -43.770  0.0000E+00  0.2000E+01
    -43.725  0.0000E+00  0.2000E+01
    -43.681  0.0000E+00  0.2000E+01
    -43.636  0.0000E+00  0.2000E+01
    -43.591  0.0000E+00  0.2000E+01
    -43.546  0.0000E+00  0.2000E+01
    -43.501  0.0000E+00  0.2000E+01
    -43.456  0.0000E+00  0.2000E+01
    -43.412  0.0000E+00  0.2000E+01
    -43.367  0.0000E+00  0.2000E+01
    -43.322  0.0000E+00  0.2000E+01
    -43.277  0.0000E+00  0.2000E+01
    -43.232  0.0000E+00  0.2000E+01
    -43.188  0.0000E+00  0.2000E+01
    -43.143  0.0000E+00  0.2000E+01
    -43.098  0.0000E+00  0.2000E+01
    -43.053  0.0000E+00  0.2000E+01
    -43.008  0.0000E+00  0.2000E+01
    -42.963  0.0000E+00  0.2000E+01
    -42.919  0.0000E+00  0.2000E+01
    -42.874  0.0000E+00  0.2000E+01
    -42.829  0.0000E+00  0.2000E+01
    -42.784  0.0000E+00  0.2000E+01
    -42.739  0.0000E+00  0.2000E+01
    -42.695  0.0000E+00  0.2000E+01
    -42.650  0.0000E+00  0.2000E+01
    -42.605  0.0000E+00  0.2000E+01
    -42.560  0.0000E+00  0.2000E+01
    -42.515  0.0000E+00  0.2000E+01
    -42.470  0.0000E+00  0.2000E+01
    -42.426  0.0000E+00  0.2000E+01
    -42.381  0.0000E+00  0.2000E+01
    -42.336  0.0000E+00  0.2000E+01
    -42.291  0.0000E+00  0.2000E+01
    -42.246  0.0000E+00  0.2000E+01
    -42.201  0.0000E+00  0.2000E+01
    -42.157  0.0000E+00  0.2000E+01
    -42.112  0.0000E+00  0.2000E+01
    -42.067  0.0000E+00  0.2000E+01
    -42.022  0.0000E+00  0.2000E+01
    -41.977  0.0000E+00  0.2000E+01
    -41.933  0.0000E+00  0.2000E+01
    -41.888  0.0000E+00  0.2000E+01
    -41.843  0.0000E+00  0.2000E+01
    -41.798  0.0000E+00  0.2000E+01
    -41.753  0.0000E+00  0.2000E+01
    -41.708  0.0000E+00  0.2000E+01
    -41.664  0.0000E+00  0.2000E+01
    -41.619  0.0000E+00  0.2000E+01
    -41.574  0.0000E+00  0.2000E+01
    -41.529  0.0000E+00  0.2000E+01
    -41.484  0.0000E+00  0.2000E+01
    -41.440  0.0000E+00  0.2000E+01
    -41.395  0.0000E+00  0.2000E+01
    -41.350  0.0000E+00  0.2000E+01
    -41.305  0.0000E+00  0.2000E+01
    -41.260  0.0000E+00  0.2000E+01
    -41.215  0.0000E+00  0.2000E+01
    -41.171  0.0000E+00  0.2000E+01
    -41.126  0.0000E+00  0.2000E+01
    -41.081  0.0000E+00  0.2000E+01
    -41.036  0.0000E+00  0.2000E+01
    -40.991  0.0000E+00  0.2000E+01
    -40.947  0.0000E+00  0.2000E+01
    -40.902  0.0000E+00  0.2000E+01
    -40.857  0.0000E+00  0.2000E+01
    -40.812  0.0000E+00  0.2000E+01
    -40.767  0.0000E+00  0.2000E+01
    -40.722  0.0000E+00  0.2000E+01
    -40.678  0.0000E+00  0.2000E+01
    -40.633  0.0000E+00  0.2000E+01
    -40.588  0.0000E+00  0.2000E+01
    -40.543  0.0000E+00  0.2000E+01
    -40.498  0.0000E+00  0.2000E+01
    -40.454  0.0000E+00  0.2000E+01
    -40.409  0.0000E+00  0.2000E+01
    -40.364  0.0000E+00  0.2000E+01
    -40.319  0.0000E+00  0.2000E+01
    -40.274  0.0000E+00  0.2000E+01
    -40.229  0.0000E+00  0.2000E+01
    -40.185  0.0000E+00  0.2000E+01
    -40.140  0.0000E+00  0.2000E+01
    -40.095  0.0000E+00  0.2000E+01
    -40.050  0.0000E+00  0.2000E+01
    -40.005  0.0000E+00  0.2000E+01
    -39.960  0.0000E+00  0.2000E+01
    -39.916  0.0000E+00  0.2000E+01
    -39.871  0.0000E+00  0.2000E+01
    -39.826  0.0000E+00  0.2000E+01
    -39.781  0.0000E+00  0.2000E+01
    -39.736  0.0000E+00  0.2000E+01
    -39.692  0.0000E+00  0.2000E+01
    -39.647  0.0000E+00  0.2000E+01
    -39.602  0.0000E+00  0.2000E+01
    -39.557  0.0000E+00  0.2000E+01
    -39.512  0.0000E+00  0.2000E+01
    -39.467  0.0000E+00  0.2000E+01
    -39.423  0.0000E+00  0.2000E+01
    -39.378  0.0000E+00  0.2000E+01
    -39.333  0.0000E+00  0.2000E+01
    -39.288  0.0000E+00  0.2000E+01
    -39.243  0.0000E+00  0.2000E+01
    -39.199  0.0000E+00  0.2000E+01
    -39.154  0.0000E+00  0.2000E+01
    -39.109  0.0000E+00  0.2000E+01
    -39.064  0.0000E+00  0.2000E+01
    -39.019  0.0000E+00  0.2000E+01
    -38.974  0.0000E+00  0.2000E+01
    -38.930  0.0000E+00  0.2000E+01
    -38.885  0.0000E+00  0.2000E+01
    -38.840  0.0000E+00  0.2000E+01
    -38.795  0.0000E+00  0.2000E+01
    -38.750  0.0000E+00  0.2000E+01
    -38.706  0.0000E+00  0.2000E+01
    -38.661  0.0000E+00  0.2000E+01
    -38.616  0.0000E+00  0.2000E+01
    -38.571  0.0000E+00  0.2000E+01
    -38.526  0.0000E+00  0.2000E+01
    -38.481  0.0000E+00  0.2000E+01
    -38.437  0.0000E+00  0.2000E+01
    -38.392  0.0000E+00  0.2000E+01
    -38.347  0.0000E+00  0.2000E+01
    -38.302  0.0000E+00  0.2000E+01
    -38.257  0.0000E+00  0.2000E+01
    -38.212  0.0000E+00  0.2000E+01
    -38.168  0.0000E+00  0.2000E+01
    -38.123  0.0000E+00  0.2000E+01
    -38.078  0.0000E+00  0.2000E+01
    -38.033  0.0000E+00  0.2000E+01
    -37.988  0.0000E+00  0.2000E+01
    -37.944  0.0000E+00  0.2000E+01
    -37.899  0.0000E+00  0.2000E+01
    -37.854  0.0000E+00  0.2000E+01
    -37.809  0.0000E+00  0.2000E+01
    -37.764  0.0000E+00  0.2000E+01
    -37.719  0.0000E+00  0.2000E+01
    -37.675  0.0000E+00  0.2000E+01
    -37.630  0.0000E+00  0.2000E+01
    -37.585  0.0000E+00  0.2000E+01
    -37.540  0.0000E+00  0.2000E+01
    -37.495  0.0000E+00  0.2000E+01
    -37.451  0.0000E+00  0.2000E+01
    -37.406  0.0000E+00  0.2000E+01
    -37.361  0.0000E+00  0.2000E+01
    -37.316  0.0000E+00  0.2000E+01
    -37.271  0.0000E+00  0.2000E+01
    -37.226  0.0000E+00  0.2000E+01
    -37.182  0.0000E+00  0.2000E+01
    -37.137  0.0000E+00  0.2000E+01
    -37.092  0.0000E+00  0.2000E+01
    -37.047  0.0000E+00  0.2000E+01
    -37.002  0.0000E+00  0.2000E+01
    -36.958  0.0000E+00  0.2000E+01
    -36.913  0.0000E+00  0.2000E+01
    -36.868  0.0000E+00  0.2000E+01
    -36.823  0.0000E+00  0.2000E+01
    -36.778  0.0000E+00  0.2000E+01
    -36.733  0.0000E+00  0.2000E+01
    -36.689  0.0000E+00  0.2000E+01