       N       E                     dE             d eps       ncg     rms          rms(c)
DAV:   1     0.976160761936E+03    0.97616E+03   -0.36807E+04 82456   0.169E+03
DAV:   2     0.571840627177E+02   -0.91898E+03   -0.88412E+03 86864   0.524E+02
DAV:   3    -0.737584226693E+02   -0.13094E+03   -0.12644E+03 97848   0.203E+02
DAV:   4    -0.801456603050E+02   -0.63872E+01   -0.63410E+01 90784   0.476E+01
DAV:   5    -0.804181191934E+02   -0.27246E+00   -0.27221E+00103608   0.100E+01    0.498E+01
DAV:   6    -0.662373683208E+02    0.14181E+02   -0.72014E+01106568   0.675E+01    0.128E+01
DAV:   7    -0.659550021188E+02    0.28237E+00   -0.98905E+00 88672   0.178E+01    0.117E+01
DAV:   8    -0.658354074622E+02    0.11959E+00   -0.12559E+00 96064   0.821E+00    0.156E+00
DAV:   9    -0.657851156911E+02    0.50292E-01   -0.18748E-01 98984   0.328E+00    0.533E-01
DAV:  10    -0.657902825008E+02   -0.51668E-02   -0.67447E-02 94280   0.134E+00    0.293E-01
DAV:  11    -0.657899253697E+02    0.35713E-03   -0.41067E-03106576   0.512E-01    0.138E-01
DAV:  12    -0.657906122563E+02   -0.68689E-03   -0.20478E-03 94736   0.304E-01    0.540E-02
DAV:  13    -0.657905942336E+02    0.18023E-04   -0.12543E-04107360   0.979E-02    0.229E-02
DAV:  14    -0.657906032815E+02   -0.90479E-05   -0.88979E-05100048   0.537E-02    0.102E-02
DAV:  15    -0.657906036670E+02   -0.38553E-06   -0.57911E-06 97144   0.143E-02    0.554E-03
DAV:  16    -0.657906035457E+02    0.12136E-06   -0.22504E-06100352   0.852E-03    0.147E-03
DAV:  17    -0.657906035800E+02   -0.34357E-07   -0.41884E-07117568   0.380E-03    0.911E-04
DAV:  18    -0.657906036040E+02   -0.24007E-07   -0.23836E-08 75400   0.105E-03    0.549E-04
DAV:  19    -0.657906036085E+02   -0.44984E-08   -0.11828E-08 55408   0.679E-04
   1 F= -.65790604E+02 E0= -.65790604E+02  d E =-.409352E-13
