 vasp.6.4.2 20Jul23 (build Jun 26 2024 13:15:30) complex                         
 executed on              LinuxNV date 2025.02.27  19:48:03
 running    4 mpi-ranks, with    1 threads/rank, on    1 nodes
 distrk:  each k-point on    4 cores,    1 groups
 distr:  one band on NCORE=   1 cores,    4 groups
 OpenACC runtime initialized ...    4 GPUs detected


--------------------------------------------------------------------------------------------------------


 INCAR:
   ISTART = 1            (Read existing wavefunction, if there)
   ISPIN = 1            (Non-Spin polarised DFT)
   LREAL = .FALSE.       (Projection operators: automatic)
   LWAVE = .TRUE.        (Write WAVECAR or not)
   LCHARG = .TRUE.        (Write CHGCAR or not)
   ADDGRID = .TRUE.        (Increase grid, helps GGA convergence)
   LASPH = .TRUE.        (Give more accurate total energies and band structure calculations)
   PREC = Accurate      (Accurate strictly avoids any aliasing or wrap around errors)
   ISMEAR = 0            (gaussian smearing method)
   SIGMA = 0.05         (please check the width of the smearing)
   LORBIT = 11           (PAW radii for projected DOS)
   NEDOS = 2001         (DOSCAR points)
   NELM = 60           (Max electronic SCF steps)
   EDIFF = 1E-08        (SCF energy convergence, in eV)

 POTCAR:    PAW_PBE O 08Apr2002                   
 POTCAR:    PAW_PBE W_sv 04Sep2015                
 POTCAR:    PAW_PBE Bi_d 06Sep2000                
 POTCAR:    PAW_PBE O 08Apr2002                   
   VRHFIN =O: s2p4                                                                                  
   LEXCH  = PE                                                                                      
   EATOM  =   432.3788 eV,   31.7789 Ry                                                             
                                                                                                    
   TITEL  = PAW_PBE O 08Apr2002                                                                     
   LULTRA =        F    use ultrasoft PP ?                                                          
   IUNSCR =        1    unscreen: 0-lin 1-nonlin 2-no                                               
   RPACOR =    1.200    partial core radius                                                         
   POMASS =   16.000; ZVAL   =    6.000    mass and valenz                                          
   RCORE  =    1.520    outmost cutoff radius                                                       
   RWIGS  =    1.550; RWIGS  =    0.820    wigner-seitz radius (au A)                               
   ENMAX  =  400.000; ENMIN  =  300.000 eV                                                          
   ICORE  =        2    local potential                                                             
   LCOR   =        T    correct aug charges                                                         
   LPAW   =        T    paw PP                                                                      
   EAUG   =  605.392                                                                                
   DEXC   =    0.000                                                                                
   RMAX   =    1.553    core radius for proj-oper                                                   
   RAUG   =    1.300    factor for augmentation sphere                                              
   RDEP   =    1.550    radius for radial grids                                                     
   RDEPT  =    1.329    core radius for aug-charge                                                  
                                                                                                    
   Atomic configuration                                                                             
    4 entries                                                                                       
     n  l   j            E        occ.                                                              
     1  0  0.50      -514.6923   2.0000                                                             
     2  0  0.50       -23.9615   2.0000                                                             
     2  1  0.50        -9.0305   4.0000                                                             
     3  2  1.50        -9.5241   0.0000                                                             
   Description                                                                                      
     l       E           TYP  RCUT    TYP  RCUT                                                     
     0    -23.9615318     23  1.200                                                                 
     0     -9.5240782     23  1.200                                                                 
     1     -9.0304911     23  1.520                                                                 
     1      8.1634956     23  1.520                                                                 
     2     -9.5240782      7  1.500                                                                 
  local pseudopotential read in
  partial core-charges read in
  partial kinetic energy density read in
  kinetic energy density of atom read in
  atomic valenz-charges read in
  non local Contribution for L=            0  read in
    real space projection operators read in
  non local Contribution for L=            0  read in
    real space projection operators read in
  non local Contribution for L=            1  read in
    real space projection operators read in
  non local Contribution for L=            1  read in
    real space projection operators read in
    PAW grid and wavefunctions read in
 
   number of l-projection  operators is LMAX  =            4
   number of lm-projection operators is LMMAX =            8
 
 POTCAR:    PAW_PBE W_sv 04Sep2015                
   VRHFIN =W : 5p6s5d                                                                               
   LEXCH  = PE                                                                                      
   EATOM  =  1865.5791 eV,  137.1162 Ry                                                             
                                                                                                    
   TITEL  = PAW_PBE W_sv 04Sep2015                                                                  
   LULTRA =        F    use ultrasoft PP ?                                                          
   IUNSCR =        1    unscreen: 0-lin 1-nonlin 2-no                                               
   RPACOR =    2.330    partial core radius                                                         
   POMASS =  183.850; ZVAL   =   14.000    mass and valenz                                          
   RCORE  =    2.500    outmost cutoff radius                                                       
   RWIGS  =    2.750; RWIGS  =    1.455    wigner-seitz radius (au A)                               
   ENMAX  =  223.057; ENMIN  =  167.293 eV                                                          
   ICORE  =        3    local potential                                                             
   LCOR   =        T    correct aug charges                                                         
   LPAW   =        T    paw PP                                                                      
   EAUG   =  373.438                                                                                
   DEXC   =    0.000                                                                                
   RMAX   =    2.565    core radius for proj-oper                                                   
   RAUG   =    1.300    factor for augmentation sphere                                              
   RDEP   =    2.539    radius for radial grids                                                     
   RDEPT  =    2.126    core radius for aug-charge                                                  
                                                                                                    
   Atomic configuration                                                                             
   15 entries                                                                                       
     n  l   j            E        occ.                                                              
     1  0  0.50    -69465.5834   2.0000                                                             
     2  0  0.50    -11986.2640   2.0000                                                             
     2  1  1.50    -10479.8613   6.0000                                                             
     3  0  0.50     -2759.0756   2.0000                                                             
     3  1  1.50     -2313.1855   6.0000                                                             
     3  2  2.50     -1801.1183  10.0000                                                             
     4  0  0.50      -567.6789   2.0000                                                             
     4  1  1.50      -421.4692   6.0000                                                             
     4  2  2.50      -236.3471  10.0000                                                             
     4  3  3.50       -31.2665  14.0000                                                             
     5  0  0.50       -77.1084   2.0000                                                             
     6  0  0.50        -5.1438   1.0000                                                             
     5  1  1.50       -41.3856   6.0000                                                             
     5  2  2.50        -3.3185   5.0000                                                             
     5  3  2.50        -1.3606   0.0000                                                             
   Description                                                                                      
     l       E           TYP  RCUT    TYP  RCUT                                                     
     0    -77.1084470     23  2.100                                                                 
     0     -5.1437956     23  2.300                                                                 
     1    -41.3855615     23  2.500                                                                 
     1     -2.7211652     23  2.500                                                                 
     2     -3.3185025     23  2.500                                                                 
     2     -1.5965151     23  2.500                                                                 
     3     -1.3605826     23  2.500                                                                 
  local pseudopotential read in
  partial core-charges read in
  partial kinetic energy density read in
  kinetic energy density of atom read in
  atomic valenz-charges read in
  non local Contribution for L=            0  read in
    real space projection operators read in
  non local Contribution for L=            0  read in
    real space projection operators read in
  non local Contribution for L=            1  read in
    real space projection operators read in
  non local Contribution for L=            1  read in
    real space projection operators read in
  non local Contribution for L=            2  read in
    real space projection operators read in
  non local Contribution for L=            2  read in
    real space projection operators read in
    PAW grid and wavefunctions read in
 
   number of l-projection  operators is LMAX  =            6
   number of lm-projection operators is LMMAX =           18
 
 POTCAR:    PAW_PBE Bi_d 06Sep2000                
   VRHFIN =Bi:                                                                                      
   LEXCH  = PE                                                                                      
   EATOM  =  1959.2045 eV,  143.9975 Ry                                                             
                                                                                                    
   TITEL  = PAW_PBE Bi_d 06Sep2000                                                                  
   LULTRA =        F    use ultrasoft PP ?                                                          
   IUNSCR =        1    unscreen: 0-lin 1-nonlin 2-no                                               
   RPACOR =    2.200    partial core radius                                                         
   POMASS =  208.980; ZVAL   =   15.000    mass and valenz                                          
   RCORE  =    2.500    outmost cutoff radius                                                       
   RWIGS  =    3.090; RWIGS  =    1.635    wigner-seitz radius (au A)                               
   ENMAX  =  242.839; ENMIN  =  182.129 eV                                                          
   ICORE  =        3    local potential                                                             
   LCOR   =        T    correct aug charges                                                         
   LPAW   =        T    paw PP                                                                      
   EAUG   =  442.899                                                                                
   DEXC   =    0.000                                                                                
   RMAX   =    2.551    core radius for proj-oper                                                   
   RAUG   =    1.300    factor for augmentation sphere                                              
   RDEP   =    2.650    radius for radial grids                                                     
   RDEPT  =    2.039    core radius for aug-charge                                                  
                                                                                                    
   Atomic configuration                                                                             
   16 entries                                                                                       
     n  l   j            E        occ.                                                              
     1  0  0.50    -90639.6581   2.0000                                                             
     2  0  0.50    -16282.4666   2.0000                                                             
     2  1  1.50    -13922.8286   6.0000                                                             
     3  0  0.50     -3930.4763   2.0000                                                             
     3  1  1.50     -3256.7013   6.0000                                                             
     3  2  2.50     -2581.6168  10.0000                                                             
     4  0  0.50      -902.2614   2.0000                                                             
     4  1  1.50      -681.5915   6.0000                                                             
     4  2  2.50      -429.8249  10.0000                                                             
     4  3  3.50      -152.6004  14.0000                                                             
     5  0  0.50      -157.7156   2.0000                                                             
     5  1  1.50       -95.8054   6.0000                                                             
     5  2  2.50       -27.0806  10.0000                                                             
     6  0  0.50       -14.4732   2.0000                                                             
     6  1  1.50        -4.5702   3.0000                                                             
     5  3  2.50        -2.7212   0.0000                                                             
   Description                                                                                      
     l       E           TYP  RCUT    TYP  RCUT                                                     
     2    -27.0805982     23  2.500                                                                 
     2     -1.3605826     23  2.500                                                                 
     0    -14.4732271     23  2.500                                                                 
     0      6.8029130     23  2.500                                                                 
     1     -4.5701651     23  2.500                                                                 
     1     13.6058260     23  2.500                                                                 
     3     -1.3605826      7  2.500                                                                 
  local pseudopotential read in
  partial core-charges read in
  partial kinetic energy density read in
  atomic valenz-charges read in
  non local Contribution for L=            2  read in
    real space projection operators read in
  non local Contribution for L=            2  read in
    real space projection operators read in
  non local Contribution for L=            0  read in
    real space projection operators read in
  non local Contribution for L=            0  read in
    real space projection operators read in
  non local Contribution for L=            1  read in
    real space projection operators read in
  non local Contribution for L=            1  read in
    real space projection operators read in
    PAW grid and wavefunctions read in
 
   number of l-projection  operators is LMAX  =            6
   number of lm-projection operators is LMMAX =           18
 
  PAW_PBE O 08Apr2002                   :
 energy of atom  1       EATOM= -432.3788
 kinetic energy error for atom=    0.1156 (will be added to EATOM!!)
  PAW_PBE W_sv 04Sep2015                :
 energy of atom  2       EATOM=-1865.5791
 kinetic energy error for atom=    0.0065 (will be added to EATOM!!)
  PAW_PBE Bi_d 06Sep2000                :
 energy of atom  3       EATOM=-1959.2045
 kinetic energy error for atom=    0.0072 (will be added to EATOM!!)
 
 
 POSCAR: Generated by VASPKIT code
  positions in direct lattice
  velocities in cartesian coordinates
 exchange correlation table for  LEXCH =        8
   RHO(1)=    0.500       N(1)  =     2000
   RHO(2)=  100.500       N(2)  =     4000
 


--------------------------------------------------------------------------------------------------------


 ion  position               nearest neighbor table
   1  0.312  0.312  0.994-   7 1.80   7 2.17
   2  0.819  0.819  0.006-   7 1.83   7 2.02
   3  0.950  0.725  0.549-   7 1.90   8 2.45   8 2.66
   4  0.725  0.950  0.549-   7 1.90   9 2.45   9 2.66
   5  0.974  0.479  0.918-   8 2.18   9 2.27   9 2.38   8 2.49
   6  0.479  0.974  0.918-   9 2.18   8 2.27   8 2.38   9 2.49
   7  0.765  0.765  0.428-   1 1.80   2 1.83   3 1.90   4 1.90   2 2.02   1 2.17
   8  0.353  0.007  0.354-   5 2.18   6 2.27   6 2.38   3 2.45   5 2.49   3 2.66   9 3.75   9 3.75
                             9 3.76   9 3.76
   9  0.007  0.353  0.354-   6 2.18   5 2.27   5 2.38   4 2.45   6 2.49   4 2.66   8 3.75   8 3.75
                             8 3.76   8 3.76
 
  LATTYP: Found a base centered monoclinic cell.
 ALAT       =     5.4979998276
 B/A-ratio  =     3.0118616946
 C/A-ratio  =     0.6962573929
 COS(beta)  =    -0.6934704271
  
  Lattice vectors:
  
 A1 = (   2.7487708124,  -8.2796075390,  -0.0354900959)
 A2 = (   2.7487708124,   8.2796075390,  -0.0354900959)
 A3 = (  -2.6187928059,  -0.0000000000,   2.7920753089)


Analysis of symmetry for initial positions (statically):
=====================================================================
 Subroutine PRICEL returns:
 Original cell was already a primitive cell.
 

 Routine SETGRP: Setting up the symmetry group for a 
 base centered monoclinic supercell.


 Subroutine GETGRP returns: Found  2 space group operations
 (whereof  2 operations were pure point group operations)
 out of a pool of  4 trial point group operations.


The static configuration has the point symmetry C_1h.


Analysis of symmetry for dynamics (positions and initial velocities):
=====================================================================
 Subroutine PRICEL returns:
 Original cell was already a primitive cell.
 

 Routine SETGRP: Setting up the symmetry group for a 
 base centered monoclinic supercell.


 Subroutine GETGRP returns: Found  2 space group operations
 (whereof  2 operations were pure point group operations)
 out of a pool of  4 trial point group operations.


The dynamic configuration has the point symmetry C_1h.


 Subroutine INISYM returns: Found  2 space group operations
 (whereof  2 operations are pure point group operations),
 and found     1 'primitive' translations


----------------------------------------------------------------------------------------

                                     Primitive cell                                     

  volume of cell :     125.5492

  direct lattice vectors                    reciprocal lattice vectors
     2.748770812 -8.279607539 -0.035490096     0.184129285 -0.060389336  0.172701805
     2.748770812  8.279607539 -0.035490096     0.184129285  0.060389336  0.172701805
    -2.618792806 -0.000000000  2.792075309     0.004680938  0.000000000  0.362546957

  length of vectors
     8.724041582  8.724041582  3.828023026     0.259569603  0.259569603  0.362577174

  position of ions in fractional coordinates (direct lattice)
     0.311601001  0.311601001  0.993614475
     0.818679278  0.818679278  0.006226457
     0.950229929  0.725012998  0.549057765
     0.725012998  0.950229929  0.549057765
     0.974437653  0.479071792  0.917801322
     0.479071792  0.974437653  0.917801322
     0.764774586  0.764774586  0.428491841
     0.353187034  0.007069086  0.353511413
     0.007069086  0.353187034  0.353511413

  ion indices of the primitive-cell ions
   primitive index   ion index
                 1           1
                 2           2
                 3           3
                 4           4
                 5           5
                 6           6
                 7           7
                 8           8
                 9           9

----------------------------------------------------------------------------------------

 
 
 KPOINTS: K-Spacing Value to Generate K-Mesh: 0.02

Automatic generation of k-mesh.
 Grid dimensions read from file:
 generate k-points for:   13   13   18

 Generating k-lattice:

  Cartesian coordinates                     Fractional coordinates (reciprocal lattice)
     0.014163791 -0.004645334  0.013284754     0.076923077  0.000000000  0.000000000
     0.014163791  0.004645334  0.013284754    -0.000000000  0.076923077  0.000000000
     0.000260052  0.000000000  0.020141498    -0.000000000 -0.000000000  0.055555556

  Length of vectors
     0.019966893  0.019966893  0.020143176

  Shift w.r.t. Gamma in fractional coordinates (k-lattice)
     0.000000000  0.000000000  0.000000000

 
 Subroutine IBZKPT returns following result:
 ===========================================
 
 Found    826 irreducible k-points:
 
 Following reciprocal coordinates:
            Coordinates               Weight
  0.000000  0.000000  0.000000      1.000000
  0.076923  0.000000  0.000000      4.000000
  0.153846  0.000000  0.000000      4.000000
  0.230769  0.000000  0.000000      4.000000
  0.307692  0.000000  0.000000      4.000000
  0.384615  0.000000  0.000000      4.000000
  0.461538  0.000000  0.000000      4.000000
  0.076923  0.076923  0.000000      2.000000
  0.153846  0.076923  0.000000      4.000000
  0.230769  0.076923  0.000000      4.000000
  0.307692  0.076923  0.000000      4.000000
  0.384615  0.076923  0.000000      4.000000
  0.461538  0.076923  0.000000      4.000000
 -0.461538  0.076923  0.000000      4.000000
 -0.384615  0.076923  0.000000      4.000000
 -0.307692  0.076923  0.000000      4.000000
 -0.230769  0.076923  0.000000      4.000000
 -0.153846  0.076923  0.000000      4.000000
 -0.076923  0.076923  0.000000      2.000000
  0.153846  0.153846  0.000000      2.000000
  0.230769  0.153846  0.000000      4.000000
  0.307692  0.153846  0.000000      4.000000
  0.384615  0.153846  0.000000      4.000000
  0.461538  0.153846  0.000000      4.000000
 -0.461538  0.153846  0.000000      4.000000
 -0.384615  0.153846  0.000000      4.000000
 -0.307692  0.153846  0.000000      4.000000
 -0.230769  0.153846  0.000000      4.000000
 -0.153846  0.153846  0.000000      2.000000
  0.230769  0.230769  0.000000      2.000000
  0.307692  0.230769  0.000000      4.000000
  0.384615  0.230769  0.000000      4.000000
  0.461538  0.230769  0.000000      4.000000
 -0.461538  0.230769  0.000000      4.000000
 -0.384615  0.230769  0.000000      4.000000
 -0.307692  0.230769  0.000000      4.000000
 -0.230769  0.230769  0.000000      2.000000
  0.307692  0.307692  0.000000      2.000000
  0.384615  0.307692  0.000000      4.000000
  0.461538  0.307692  0.000000      4.000000
 -0.461538  0.307692  0.000000      4.000000
 -0.384615  0.307692  0.000000      4.000000
 -0.307692  0.307692  0.000000      2.000000
  0.384615  0.384615  0.000000      2.000000
  0.461538  0.384615  0.000000      4.000000
 -0.461538  0.384615  0.000000      4.000000
 -0.384615  0.384615  0.000000      2.000000
  0.461538  0.461538  0.000000      2.000000
 -0.461538  0.461538  0.000000      2.000000
  0.000000  0.000000  0.055556      2.000000
  0.076923  0.000000  0.055556      4.000000
  0.153846  0.000000  0.055556      4.000000
  0.230769  0.000000  0.055556      4.000000
  0.307692  0.000000  0.055556      4.000000
  0.384615  0.000000  0.055556      4.000000
  0.461538  0.000000  0.055556      4.000000
 -0.461538  0.000000  0.055556      4.000000
 -0.384615  0.000000  0.055556      4.000000
 -0.307692  0.000000  0.055556      4.000000
 -0.230769  0.000000  0.055556      4.000000
 -0.153846  0.000000  0.055556      4.000000
 -0.076923  0.000000  0.055556      4.000000
  0.076923  0.076923  0.055556      2.000000
  0.153846  0.076923  0.055556      4.000000
  0.230769  0.076923  0.055556      4.000000
  0.307692  0.076923  0.055556      4.000000
  0.384615  0.076923  0.055556      4.000000
  0.461538  0.076923  0.055556      4.000000
 -0.461538  0.076923  0.055556      4.000000
 -0.384615  0.076923  0.055556      4.000000
 -0.307692  0.076923  0.055556      4.000000
 -0.230769  0.076923  0.055556      4.000000
 -0.153846  0.076923  0.055556      4.000000
 -0.076923  0.076923  0.055556      4.000000
  0.153846  0.153846  0.055556      2.000000
  0.230769  0.153846  0.055556      4.000000
  0.307692  0.153846  0.055556      4.000000
  0.384615  0.153846  0.055556      4.000000
  0.461538  0.153846  0.055556      4.000000
 -0.461538  0.153846  0.055556      4.000000
 -0.384615  0.153846  0.055556      4.000000
 -0.307692  0.153846  0.055556      4.000000
 -0.230769  0.153846  0.055556      4.000000
 -0.153846  0.153846  0.055556      4.000000
 -0.076923  0.153846  0.055556      4.000000
  0.230769  0.230769  0.055556      2.000000
  0.307692  0.230769  0.055556      4.000000
  0.384615  0.230769  0.055556      4.000000
  0.461538  0.230769  0.055556      4.000000
 -0.461538  0.230769  0.055556      4.000000
 -0.384615  0.230769  0.055556      4.000000
 -0.307692  0.230769  0.055556      4.000000
 -0.230769  0.230769  0.055556      4.000000
 -0.153846  0.230769  0.055556      4.000000
 -0.076923  0.230769  0.055556      4.000000
  0.307692  0.307692  0.055556      2.000000
  0.384615  0.307692  0.055556      4.000000
  0.461538  0.307692  0.055556      4.000000
 -0.461538  0.307692  0.055556      4.000000
 -0.384615  0.307692  0.055556      4.000000
 -0.307692  0.307692  0.055556      4.000000
 -0.230769  0.307692  0.055556      4.000000
 -0.153846  0.307692  0.055556      4.000000
 -0.076923  0.307692  0.055556      4.000000
  0.384615  0.384615  0.055556      2.000000
  0.461538  0.384615  0.055556      4.000000
 -0.461538  0.384615  0.055556      4.000000
 -0.384615  0.384615  0.055556      4.000000
 -0.307692  0.384615  0.055556      4.000000
 -0.230769  0.384615  0.055556      4.000000
 -0.153846  0.384615  0.055556      4.000000
 -0.076923  0.384615  0.055556      4.000000
  0.461538  0.461538  0.055556      2.000000
 -0.461538  0.461538  0.055556      4.000000
 -0.384615  0.461538  0.055556      4.000000
 -0.307692  0.461538  0.055556      4.000000
 -0.230769  0.461538  0.055556      4.000000
 -0.153846  0.461538  0.055556      4.000000
 -0.076923  0.461538  0.055556      4.000000
 -0.461538 -0.461538  0.055556      2.000000
 -0.384615 -0.461538  0.055556      4.000000
 -0.307692 -0.461538  0.055556      4.000000
 -0.230769 -0.461538  0.055556      4.000000
 -0.153846 -0.461538  0.055556      4.000000
 -0.076923 -0.461538  0.055556      4.000000
 -0.384615 -0.384615  0.055556      2.000000
 -0.307692 -0.384615  0.055556      4.000000
 -0.230769 -0.384615  0.055556      4.000000
 -0.153846 -0.384615  0.055556      4.000000
 -0.076923 -0.384615  0.055556      4.000000
 -0.307692 -0.307692  0.055556      2.000000
 -0.230769 -0.307692  0.055556      4.000000
 -0.153846 -0.307692  0.055556      4.000000
 -0.076923 -0.307692  0.055556      4.000000
 -0.230769 -0.230769  0.055556      2.000000
 -0.153846 -0.230769  0.055556      4.000000
 -0.076923 -0.230769  0.055556      4.000000
 -0.153846 -0.153846  0.055556      2.000000
 -0.076923 -0.153846  0.055556      4.000000
 -0.076923 -0.076923  0.055556      2.000000
  0.000000  0.000000  0.111111      2.000000
  0.076923  0.000000  0.111111      4.000000
  0.153846  0.000000  0.111111      4.000000
  0.230769  0.000000  0.111111      4.000000
  0.307692  0.000000  0.111111      4.000000
  0.384615  0.000000  0.111111      4.000000
  0.461538  0.000000  0.111111      4.000000
 -0.461538  0.000000  0.111111      4.000000
 -0.384615  0.000000  0.111111      4.000000
 -0.307692  0.000000  0.111111      4.000000
 -0.230769  0.000000  0.111111      4.000000
 -0.153846  0.000000  0.111111      4.000000
 -0.076923  0.000000  0.111111      4.000000
  0.076923  0.076923  0.111111      2.000000
  0.153846  0.076923  0.111111      4.000000
  0.230769  0.076923  0.111111      4.000000
  0.307692  0.076923  0.111111      4.000000
  0.384615  0.076923  0.111111      4.000000
  0.461538  0.076923  0.111111      4.000000
 -0.461538  0.076923  0.111111      4.000000
 -0.384615  0.076923  0.111111      4.000000
 -0.307692  0.076923  0.111111      4.000000
 -0.230769  0.076923  0.111111      4.000000
 -0.153846  0.076923  0.111111      4.000000
 -0.076923  0.076923  0.111111      4.000000
  0.153846  0.153846  0.111111      2.000000
  0.230769  0.153846  0.111111      4.000000
  0.307692  0.153846  0.111111      4.000000
  0.384615  0.153846  0.111111      4.000000
  0.461538  0.153846  0.111111      4.000000
 -0.461538  0.153846  0.111111      4.000000
 -0.384615  0.153846  0.111111      4.000000
 -0.307692  0.153846  0.111111      4.000000
 -0.230769  0.153846  0.111111      4.000000
 -0.153846  0.153846  0.111111      4.000000
 -0.076923  0.153846  0.111111      4.000000
  0.230769  0.230769  0.111111      2.000000
  0.307692  0.230769  0.111111      4.000000
  0.384615  0.230769  0.111111      4.000000
  0.461538  0.230769  0.111111      4.000000
 -0.461538  0.230769  0.111111      4.000000
 -0.384615  0.230769  0.111111      4.000000
 -0.307692  0.230769  0.111111      4.000000
 -0.230769  0.230769  0.111111      4.000000
 -0.153846  0.230769  0.111111      4.000000
 -0.076923  0.230769  0.111111      4.000000
  0.307692  0.307692  0.111111      2.000000
  0.384615  0.307692  0.111111      4.000000
  0.461538  0.307692  0.111111      4.000000
 -0.461538  0.307692  0.111111      4.000000
 -0.384615  0.307692  0.111111      4.000000
 -0.307692  0.307692  0.111111      4.000000
 -0.230769  0.307692  0.111111      4.000000
 -0.153846  0.307692  0.111111      4.000000
 -0.076923  0.307692  0.111111      4.000000
  0.384615  0.384615  0.111111      2.000000
  0.461538  0.384615  0.111111      4.000000
 -0.461538  0.384615  0.111111      4.000000
 -0.384615  0.384615  0.111111      4.000000
 -0.307692  0.384615  0.111111      4.000000
 -0.230769  0.384615  0.111111      4.000000
 -0.153846  0.384615  0.111111      4.000000
 -0.076923  0.384615  0.111111      4.000000
  0.461538  0.461538  0.111111      2.000000
 -0.461538  0.461538  0.111111      4.000000
 -0.384615  0.461538  0.111111      4.000000
 -0.307692  0.461538  0.111111      4.000000
 -0.230769  0.461538  0.111111      4.000000
 -0.153846  0.461538  0.111111      4.000000
 -0.076923  0.461538  0.111111      4.000000
 -0.461538 -0.461538  0.111111      2.000000
 -0.384615 -0.461538  0.111111      4.000000
 -0.307692 -0.461538  0.111111      4.000000
 -0.230769 -0.461538  0.111111      4.000000
 -0.153846 -0.461538  0.111111      4.000000
 -0.076923 -0.461538  0.111111      4.000000
 -0.384615 -0.384615  0.111111      2.000000
 -0.307692 -0.384615  0.111111      4.000000
 -0.230769 -0.384615  0.111111      4.000000
 -0.153846 -0.384615  0.111111      4.000000
 -0.076923 -0.384615  0.111111      4.000000
 -0.307692 -0.307692  0.111111      2.000000
 -0.230769 -0.307692  0.111111      4.000000
 -0.153846 -0.307692  0.111111      4.000000
 -0.076923 -0.307692  0.111111      4.000000
 -0.230769 -0.230769  0.111111      2.000000
 -0.153846 -0.230769  0.111111      4.000000
 -0.076923 -0.230769  0.111111      4.000000
 -0.153846 -0.153846  0.111111      2.000000
 -0.076923 -0.153846  0.111111      4.000000
 -0.076923 -0.076923  0.111111      2.000000
  0.000000  0.000000  0.166667      2.000000
  0.076923  0.000000  0.166667      4.000000
  0.153846  0.000000  0.166667      4.000000
  0.230769  0.000000  0.166667      4.000000
  0.307692  0.000000  0.166667      4.000000
  0.384615  0.000000  0.166667      4.000000
  0.461538  0.000000  0.166667      4.000000
 -0.461538  0.000000  0.166667      4.000000
 -0.384615  0.000000  0.166667      4.000000
 -0.307692  0.000000  0.166667      4.000000
 -0.230769  0.000000  0.166667      4.000000
 -0.153846  0.000000  0.166667      4.000000
 -0.076923  0.000000  0.166667      4.000000
  0.076923  0.076923  0.166667      2.000000
  0.153846  0.076923  0.166667      4.000000
  0.230769  0.076923  0.166667      4.000000
  0.307692  0.076923  0.166667      4.000000
  0.384615  0.076923  0.166667      4.000000
  0.461538  0.076923  0.166667      4.000000
 -0.461538  0.076923  0.166667      4.000000
 -0.384615  0.076923  0.166667      4.000000
 -0.307692  0.076923  0.166667      4.000000
 -0.230769  0.076923  0.166667      4.000000
 -0.153846  0.076923  0.166667      4.000000
 -0.076923  0.076923  0.166667      4.000000
  0.153846  0.153846  0.166667      2.000000
  0.230769  0.153846  0.166667      4.000000
  0.307692  0.153846  0.166667      4.000000
  0.384615  0.153846  0.166667      4.000000
  0.461538  0.153846  0.166667      4.000000
 -0.461538  0.153846  0.166667      4.000000
 -0.384615  0.153846  0.166667      4.000000
 -0.307692  0.153846  0.166667      4.000000
 -0.230769  0.153846  0.166667      4.000000
 -0.153846  0.153846  0.166667      4.000000
 -0.076923  0.153846  0.166667      4.000000
  0.230769  0.230769  0.166667      2.000000
  0.307692  0.230769  0.166667      4.000000
  0.384615  0.230769  0.166667      4.000000
  0.461538  0.230769  0.166667      4.000000
 -0.461538  0.230769  0.166667      4.000000
 -0.384615  0.230769  0.166667      4.000000
 -0.307692  0.230769  0.166667      4.000000
 -0.230769  0.230769  0.166667      4.000000
 -0.153846  0.230769  0.166667      4.000000
 -0.076923  0.230769  0.166667      4.000000
  0.307692  0.307692  0.166667      2.000000
  0.384615  0.307692  0.166667      4.000000
  0.461538  0.307692  0.166667      4.000000
 -0.461538  0.307692  0.166667      4.000000
 -0.384615  0.307692  0.166667      4.000000
 -0.307692  0.307692  0.166667      4.000000
 -0.230769  0.307692  0.166667      4.000000
 -0.153846  0.307692  0.166667      4.000000
 -0.076923  0.307692  0.166667      4.000000
  0.384615  0.384615  0.166667      2.000000
  0.461538  0.384615  0.166667      4.000000
 -0.461538  0.384615  0.166667      4.000000
 -0.384615  0.384615  0.166667      4.000000
 -0.307692  0.384615  0.166667      4.000000
 -0.230769  0.384615  0.166667      4.000000
 -0.153846  0.384615  0.166667      4.000000
 -0.076923  0.384615  0.166667      4.000000
  0.461538  0.461538  0.166667      2.000000
 -0.461538  0.461538  0.166667      4.000000
 -0.384615  0.461538  0.166667      4.000000
 -0.307692  0.461538  0.166667      4.000000
 -0.230769  0.461538  0.166667      4.000000
 -0.153846  0.461538  0.166667      4.000000
 -0.076923  0.461538  0.166667      4.000000
 -0.461538 -0.461538  0.166667      2.000000
 -0.384615 -0.461538  0.166667      4.000000
 -0.307692 -0.461538  0.166667      4.000000
 -0.230769 -0.461538  0.166667      4.000000
 -0.153846 -0.461538  0.166667      4.000000
 -0.076923 -0.461538  0.166667      4.000000
 -0.384615 -0.384615  0.166667      2.000000
 -0.307692 -0.384615  0.166667      4.000000
 -0.230769 -0.384615  0.166667      4.000000
 -0.153846 -0.384615  0.166667      4.000000
 -0.076923 -0.384615  0.166667      4.000000
 -0.307692 -0.307692  0.166667      2.000000
 -0.230769 -0.307692  0.166667      4.000000
 -0.153846 -0.307692  0.166667      4.000000
 -0.076923 -0.307692  0.166667      4.000000
 -0.230769 -0.230769  0.166667      2.000000
 -0.153846 -0.230769  0.166667      4.000000
 -0.076923 -0.230769  0.166667      4.000000
 -0.153846 -0.153846  0.166667      2.000000
 -0.076923 -0.153846  0.166667      4.000000
 -0.076923 -0.076923  0.166667      2.000000
  0.000000  0.000000  0.222222      2.000000
  0.076923  0.000000  0.222222      4.000000
  0.153846  0.000000  0.222222      4.000000
  0.230769  0.000000  0.222222      4.000000
  0.307692  0.000000  0.222222      4.000000
  0.384615  0.000000  0.222222      4.000000
  0.461538  0.000000  0.222222      4.000000
 -0.461538  0.000000  0.222222      4.000000
 -0.384615  0.000000  0.222222      4.000000
 -0.307692  0.000000  0.222222      4.000000
 -0.230769  0.000000  0.222222      4.000000
 -0.153846  0.000000  0.222222      4.000000
 -0.076923  0.000000  0.222222      4.000000
  0.076923  0.076923  0.222222      2.000000
  0.153846  0.076923  0.222222      4.000000
  0.230769  0.076923  0.222222      4.000000
  0.307692  0.076923  0.222222      4.000000
  0.384615  0.076923  0.222222      4.000000
  0.461538  0.076923  0.222222      4.000000
 -0.461538  0.076923  0.222222      4.000000
 -0.384615  0.076923  0.222222      4.000000
 -0.307692  0.076923  0.222222      4.000000
 -0.230769  0.076923  0.222222      4.000000
 -0.153846  0.076923  0.222222      4.000000
 -0.076923  0.076923  0.222222      4.000000
  0.153846  0.153846  0.222222      2.000000
  0.230769  0.153846  0.222222      4.000000
  0.307692  0.153846  0.222222      4.000000
  0.384615  0.153846  0.222222      4.000000
  0.461538  0.153846  0.222222      4.000000
 -0.461538  0.153846  0.222222      4.000000
 -0.384615  0.153846  0.222222      4.000000
 -0.307692  0.153846  0.222222      4.000000
 -0.230769  0.153846  0.222222      4.000000
 -0.153846  0.153846  0.222222      4.000000
 -0.076923  0.153846  0.222222      4.000000
  0.230769  0.230769  0.222222      2.000000
  0.307692  0.230769  0.222222      4.000000
  0.384615  0.230769  0.222222      4.000000
  0.461538  0.230769  0.222222      4.000000
 -0.461538  0.230769  0.222222      4.000000
 -0.384615  0.230769  0.222222      4.000000
 -0.307692  0.230769  0.222222      4.000000
 -0.230769  0.230769  0.222222      4.000000
 -0.153846  0.230769  0.222222      4.000000
 -0.076923  0.230769  0.222222      4.000000
  0.307692  0.307692  0.222222      2.000000
  0.384615  0.307692  0.222222      4.000000
  0.461538  0.307692  0.222222      4.000000
 -0.461538  0.307692  0.222222      4.000000
 -0.384615  0.307692  0.222222      4.000000
 -0.307692  0.307692  0.222222      4.000000
 -0.230769  0.307692  0.222222      4.000000
 -0.153846  0.307692  0.222222      4.000000
 -0.076923  0.307692  0.222222      4.000000
  0.384615  0.384615  0.222222      2.000000
  0.461538  0.384615  0.222222      4.000000
 -0.461538  0.384615  0.222222      4.000000
 -0.384615  0.384615  0.222222      4.000000
 -0.307692  0.384615  0.222222      4.000000
 -0.230769  0.384615  0.222222      4.000000
 -0.153846  0.384615  0.222222      4.000000
 -0.076923  0.384615  0.222222      4.000000
  0.461538  0.461538  0.222222      2.000000
 -0.461538  0.461538  0.222222      4.000000
 -0.384615  0.461538  0.222222      4.000000
 -0.307692  0.461538  0.222222      4.000000
 -0.230769  0.461538  0.222222      4.000000
 -0.153846  0.461538  0.222222      4.000000
 -0.076923  0.461538  0.222222      4.000000
 -0.461538 -0.461538  0.222222      2.000000
 -0.384615 -0.461538  0.222222      4.000000
 -0.307692 -0.461538  0.222222      4.000000
 -0.230769 -0.461538  0.222222      4.000000
 -0.153846 -0.461538  0.222222      4.000000
 -0.076923 -0.461538  0.222222      4.000000
 -0.384615 -0.384615  0.222222      2.000000
 -0.307692 -0.384615  0.222222      4.000000
 -0.230769 -0.384615  0.222222      4.000000
 -0.153846 -0.384615  0.222222      4.000000
 -0.076923 -0.384615  0.222222      4.000000
 -0.307692 -0.307692  0.222222      2.000000
 -0.230769 -0.307692  0.222222      4.000000
 -0.153846 -0.307692  0.222222      4.000000
 -0.076923 -0.307692  0.222222      4.000000
 -0.230769 -0.230769  0.222222      2.000000
 -0.153846 -0.230769  0.222222      4.000000
 -0.076923 -0.230769  0.222222      4.000000
 -0.153846 -0.153846  0.222222      2.000000
 -0.076923 -0.153846  0.222222      4.000000
 -0.076923 -0.076923  0.222222      2.000000
  0.000000  0.000000  0.277778      2.000000
  0.076923  0.000000  0.277778      4.000000
  0.153846  0.000000  0.277778      4.000000
  0.230769  0.000000  0.277778      4.000000
  0.307692  0.000000  0.277778      4.000000
  0.384615  0.000000  0.277778      4.000000
  0.461538  0.000000  0.277778      4.000000
 -0.461538  0.000000  0.277778      4.000000
 -0.384615  0.000000  0.277778      4.000000
 -0.307692  0.000000  0.277778      4.000000
 -0.230769  0.000000  0.277778      4.000000
 -0.153846  0.000000  0.277778      4.000000
 -0.076923  0.000000  0.277778      4.000000
  0.076923  0.076923  0.277778      2.000000
  0.153846  0.076923  0.277778      4.000000
  0.230769  0.076923  0.277778      4.000000
  0.307692  0.076923  0.277778      4.000000
  0.384615  0.076923  0.277778      4.000000
  0.461538  0.076923  0.277778      4.000000
 -0.461538  0.076923  0.277778      4.000000
 -0.384615  0.076923  0.277778      4.000000
 -0.307692  0.076923  0.277778      4.000000
 -0.230769  0.076923  0.277778      4.000000
 -0.153846  0.076923  0.277778      4.000000
 -0.076923  0.076923  0.277778      4.000000
  0.153846  0.153846  0.277778      2.000000
  0.230769  0.153846  0.277778      4.000000
  0.307692  0.153846  0.277778      4.000000
  0.384615  0.153846  0.277778      4.000000
  0.461538  0.153846  0.277778      4.000000
 -0.461538  0.153846  0.277778      4.000000
 -0.384615  0.153846  0.277778      4.000000
 -0.307692  0.153846  0.277778      4.000000
 -0.230769  0.153846  0.277778      4.000000
 -0.153846  0.153846  0.277778      4.000000
 -0.076923  0.153846  0.277778      4.000000
  0.230769  0.230769  0.277778      2.000000
  0.307692  0.230769  0.277778      4.000000
  0.384615  0.230769  0.277778      4.000000
  0.461538  0.230769  0.277778      4.000000
 -0.461538  0.230769  0.277778      4.000000
 -0.384615  0.230769  0.277778      4.000000
 -0.307692  0.230769  0.277778      4.000000
 -0.230769  0.230769  0.277778      4.000000
 -0.153846  0.230769  0.277778      4.000000
 -0.076923  0.230769  0.277778      4.000000
  0.307692  0.307692  0.277778      2.000000
  0.384615  0.307692  0.277778      4.000000
  0.461538  0.307692  0.277778      4.000000
 -0.461538  0.307692  0.277778      4.000000
 -0.384615  0.307692  0.277778      4.000000
 -0.307692  0.307692  0.277778      4.000000
 -0.230769  0.307692  0.277778      4.000000
 -0.153846  0.307692  0.277778      4.000000
 -0.076923  0.307692  0.277778      4.000000
  0.384615  0.384615  0.277778      2.000000
  0.461538  0.384615  0.277778      4.000000
 -0.461538  0.384615  0.277778      4.000000
 -0.384615  0.384615  0.277778      4.000000
 -0.307692  0.384615  0.277778      4.000000
 -0.230769  0.384615  0.277778      4.000000
 -0.153846  0.384615  0.277778      4.000000
 -0.076923  0.384615  0.277778      4.000000
  0.461538  0.461538  0.277778      2.000000
 -0.461538  0.461538  0.277778      4.000000
 -0.384615  0.461538  0.277778      4.000000
 -0.307692  0.461538  0.277778      4.000000
 -0.230769  0.461538  0.277778      4.000000
 -0.153846  0.461538  0.277778      4.000000
 -0.076923  0.461538  0.277778      4.000000
 -0.461538 -0.461538  0.277778      2.000000
 -0.384615 -0.461538  0.277778      4.000000
 -0.307692 -0.461538  0.277778      4.000000
 -0.230769 -0.461538  0.277778      4.000000
 -0.153846 -0.461538  0.277778      4.000000
 -0.076923 -0.461538  0.277778      4.000000
 -0.384615 -0.384615  0.277778      2.000000
 -0.307692 -0.384615  0.277778      4.000000
 -0.230769 -0.384615  0.277778      4.000000
 -0.153846 -0.384615  0.277778      4.000000
 -0.076923 -0.384615  0.277778      4.000000
 -0.307692 -0.307692  0.277778      2.000000
 -0.230769 -0.307692  0.277778      4.000000
 -0.153846 -0.307692  0.277778      4.000000
 -0.076923 -0.307692  0.277778      4.000000
 -0.230769 -0.230769  0.277778      2.000000
 -0.153846 -0.230769  0.277778      4.000000
 -0.076923 -0.230769  0.277778      4.000000
 -0.153846 -0.153846  0.277778      2.000000
 -0.076923 -0.153846  0.277778      4.000000
 -0.076923 -0.076923  0.277778      2.000000
  0.000000  0.000000  0.333333      2.000000
  0.076923  0.000000  0.333333      4.000000
  0.153846  0.000000  0.333333      4.000000
  0.230769  0.000000  0.333333      4.000000
  0.307692  0.000000  0.333333      4.000000
  0.384615  0.000000  0.333333      4.000000
  0.461538  0.000000  0.333333      4.000000
 -0.461538  0.000000  0.333333      4.000000
 -0.384615  0.000000  0.333333      4.000000
 -0.307692  0.000000  0.333333      4.000000
 -0.230769  0.000000  0.333333      4.000000
 -0.153846  0.000000  0.333333      4.000000
 -0.076923  0.000000  0.333333      4.000000
  0.076923  0.076923  0.333333      2.000000
  0.153846  0.076923  0.333333      4.000000
  0.230769  0.076923  0.333333      4.000000
  0.307692  0.076923  0.333333      4.000000
  0.384615  0.076923  0.333333      4.000000
  0.461538  0.076923  0.333333      4.000000
 -0.461538  0.076923  0.333333      4.000000
 -0.384615  0.076923  0.333333      4.000000
 -0.307692  0.076923  0.333333      4.000000
 -0.230769  0.076923  0.333333      4.000000
 -0.153846  0.076923  0.333333      4.000000
 -0.076923  0.076923  0.333333      4.000000
  0.153846  0.153846  0.333333      2.000000
  0.230769  0.153846  0.333333      4.000000
  0.307692  0.153846  0.333333      4.000000
  0.384615  0.153846  0.333333      4.000000
  0.461538  0.153846  0.333333      4.000000
 -0.461538  0.153846  0.333333      4.000000
 -0.384615  0.153846  0.333333      4.000000
 -0.307692  0.153846  0.333333      4.000000
 -0.230769  0.153846  0.333333      4.000000
 -0.153846  0.153846  0.333333      4.000000
 -0.076923  0.153846  0.333333      4.000000
  0.230769  0.230769  0.333333      2.000000
  0.307692  0.230769  0.333333      4.000000
  0.384615  0.230769  0.333333      4.000000
  0.461538  0.230769  0.333333      4.000000
 -0.461538  0.230769  0.333333      4.000000
 -0.384615  0.230769  0.333333      4.000000
 -0.307692  0.230769  0.333333      4.000000
 -0.230769  0.230769  0.333333      4.000000
 -0.153846  0.230769  0.333333      4.000000
 -0.076923  0.230769  0.333333      4.000000
  0.307692  0.307692  0.333333      2.000000
  0.384615  0.307692  0.333333      4.000000
  0.461538  0.307692  0.333333      4.000000
 -0.461538  0.307692  0.333333      4.000000
 -0.384615  0.307692  0.333333      4.000000
 -0.307692  0.307692  0.333333      4.000000
 -0.230769  0.307692  0.333333      4.000000
 -0.153846  0.307692  0.333333      4.000000
 -0.076923  0.307692  0.333333      4.000000
  0.384615  0.384615  0.333333      2.000000
  0.461538  0.384615  0.333333      4.000000
 -0.461538  0.384615  0.333333      4.000000
 -0.384615  0.384615  0.333333      4.000000
 -0.307692  0.384615  0.333333      4.000000
 -0.230769  0.384615  0.333333      4.000000
 -0.153846  0.384615  0.333333      4.000000
 -0.076923  0.384615  0.333333      4.000000
  0.461538  0.461538  0.333333      2.000000
 -0.461538  0.461538  0.333333      4.000000
 -0.384615  0.461538  0.333333      4.000000
 -0.307692  0.461538  0.333333      4.000000
 -0.230769  0.461538  0.333333      4.000000
 -0.153846  0.461538  0.333333      4.000000
 -0.076923  0.461538  0.333333      4.000000
 -0.461538 -0.461538  0.333333      2.000000
 -0.384615 -0.461538  0.333333      4.000000
 -0.307692 -0.461538  0.333333      4.000000
 -0.230769 -0.461538  0.333333      4.000000
 -0.153846 -0.461538  0.333333      4.000000
 -0.076923 -0.461538  0.333333      4.000000
 -0.384615 -0.384615  0.333333      2.000000
 -0.307692 -0.384615  0.333333      4.000000
 -0.230769 -0.384615  0.333333      4.000000
 -0.153846 -0.384615  0.333333      4.000000
 -0.076923 -0.384615  0.333333      4.000000
 -0.307692 -0.307692  0.333333      2.000000
 -0.230769 -0.307692  0.333333      4.000000
 -0.153846 -0.307692  0.333333      4.000000
 -0.076923 -0.307692  0.333333      4.000000
 -0.230769 -0.230769  0.333333      2.000000
 -0.153846 -0.230769  0.333333      4.000000
 -0.076923 -0.230769  0.333333      4.000000
 -0.153846 -0.153846  0.333333      2.000000
 -0.076923 -0.153846  0.333333      4.000000
 -0.076923 -0.076923  0.333333      2.000000
  0.000000  0.000000  0.388889      2.000000
  0.076923  0.000000  0.388889      4.000000
  0.153846  0.000000  0.388889      4.000000
  0.230769  0.000000  0.388889      4.000000
  0.307692  0.000000  0.388889      4.000000
  0.384615  0.000000  0.388889      4.000000
  0.461538  0.000000  0.388889      4.000000
 -0.461538  0.000000  0.388889      4.000000
 -0.384615  0.000000  0.388889      4.000000
 -0.307692  0.000000  0.388889      4.000000
 -0.230769  0.000000  0.388889      4.000000
 -0.153846  0.000000  0.388889      4.000000
 -0.076923  0.000000  0.388889      4.000000
  0.076923  0.076923  0.388889      2.000000
  0.153846  0.076923  0.388889      4.000000
  0.230769  0.076923  0.388889      4.000000
  0.307692  0.076923  0.388889      4.000000
  0.384615  0.076923  0.388889      4.000000
  0.461538  0.076923  0.388889      4.000000
 -0.461538  0.076923  0.388889      4.000000
 -0.384615  0.076923  0.388889      4.000000
 -0.307692  0.076923  0.388889      4.000000
 -0.230769  0.076923  0.388889      4.000000
 -0.153846  0.076923  0.388889      4.000000
 -0.076923  0.076923  0.388889      4.000000
  0.153846  0.153846  0.388889      2.000000
  0.230769  0.153846  0.388889      4.000000
  0.307692  0.153846  0.388889      4.000000
  0.384615  0.153846  0.388889      4.000000
  0.461538  0.153846  0.388889      4.000000
 -0.461538  0.153846  0.388889      4.000000
 -0.384615  0.153846  0.388889      4.000000
 -0.307692  0.153846  0.388889      4.000000
 -0.230769  0.153846  0.388889      4.000000
 -0.153846  0.153846  0.388889      4.000000
 -0.076923  0.153846  0.388889      4.000000
  0.230769  0.230769  0.388889      2.000000
  0.307692  0.230769  0.388889      4.000000
  0.384615  0.230769  0.388889      4.000000
  0.461538  0.230769  0.388889      4.000000
 -0.461538  0.230769  0.388889      4.000000
 -0.384615  0.230769  0.388889      4.000000
 -0.307692  0.230769  0.388889      4.000000
 -0.230769  0.230769  0.388889      4.000000
 -0.153846  0.230769  0.388889      4.000000
 -0.076923  0.230769  0.388889      4.000000
  0.307692  0.307692  0.388889      2.000000
  0.384615  0.307692  0.388889      4.000000
  0.461538  0.307692  0.388889      4.000000
 -0.461538  0.307692  0.388889      4.000000
 -0.384615  0.307692  0.388889      4.000000
 -0.307692  0.307692  0.388889      4.000000
 -0.230769  0.307692  0.388889      4.000000
 -0.153846  0.307692  0.388889      4.000000
 -0.076923  0.307692  0.388889      4.000000
  0.384615  0.384615  0.388889      2.000000
  0.461538  0.384615  0.388889      4.000000
 -0.461538  0.384615  0.388889      4.000000
 -0.384615  0.384615  0.388889      4.000000
 -0.307692  0.384615  0.388889      4.000000
 -0.230769  0.384615  0.388889      4.000000
 -0.153846  0.384615  0.388889      4.000000
 -0.076923  0.384615  0.388889      4.000000
  0.461538  0.461538  0.388889      2.000000
 -0.461538  0.461538  0.388889      4.000000
 -0.384615  0.461538  0.388889      4.000000
 -0.307692  0.461538  0.388889      4.000000
 -0.230769  0.461538  0.388889      4.000000
 -0.153846  0.461538  0.388889      4.000000
 -0.076923  0.461538  0.388889      4.000000
 -0.461538 -0.461538  0.388889      2.000000
 -0.384615 -0.461538  0.388889      4.000000
 -0.307692 -0.461538  0.388889      4.000000
 -0.230769 -0.461538  0.388889      4.000000
 -0.153846 -0.461538  0.388889      4.000000
 -0.076923 -0.461538  0.388889      4.000000
 -0.384615 -0.384615  0.388889      2.000000
 -0.307692 -0.384615  0.388889      4.000000
 -0.230769 -0.384615  0.388889      4.000000
 -0.153846 -0.384615  0.388889      4.000000
 -0.076923 -0.384615  0.388889      4.000000
 -0.307692 -0.307692  0.388889      2.000000
 -0.230769 -0.307692  0.388889      4.000000
 -0.153846 -0.307692  0.388889      4.000000
 -0.076923 -0.307692  0.388889      4.000000
 -0.230769 -0.230769  0.388889      2.000000
 -0.153846 -0.230769  0.388889      4.000000
 -0.076923 -0.230769  0.388889      4.000000
 -0.153846 -0.153846  0.388889      2.000000
 -0.076923 -0.153846  0.388889      4.000000
 -0.076923 -0.076923  0.388889      2.000000
  0.000000  0.000000  0.444444      2.000000
  0.076923  0.000000  0.444444      4.000000
  0.153846  0.000000  0.444444      4.000000
  0.230769  0.000000  0.444444      4.000000
  0.307692  0.000000  0.444444      4.000000
  0.384615  0.000000  0.444444      4.000000
  0.461538  0.000000  0.444444      4.000000
 -0.461538  0.000000  0.444444      4.000000
 -0.384615  0.000000  0.444444      4.000000
 -0.307692  0.000000  0.444444      4.000000
 -0.230769  0.000000  0.444444      4.000000
 -0.153846  0.000000  0.444444      4.000000
 -0.076923  0.000000  0.444444      4.000000
  0.076923  0.076923  0.444444      2.000000
  0.153846  0.076923  0.444444      4.000000
  0.230769  0.076923  0.444444      4.000000
  0.307692  0.076923  0.444444      4.000000
  0.384615  0.076923  0.444444      4.000000
  0.461538  0.076923  0.444444      4.000000
 -0.461538  0.076923  0.444444      4.000000
 -0.384615  0.076923  0.444444      4.000000
 -0.307692  0.076923  0.444444      4.000000
 -0.230769  0.076923  0.444444      4.000000
 -0.153846  0.076923  0.444444      4.000000
 -0.076923  0.076923  0.444444      4.000000
  0.153846  0.153846  0.444444      2.000000
  0.230769  0.153846  0.444444      4.000000
  0.307692  0.153846  0.444444      4.000000
  0.384615  0.153846  0.444444      4.000000
  0.461538  0.153846  0.444444      4.000000
 -0.461538  0.153846  0.444444      4.000000
 -0.384615  0.153846  0.444444      4.000000
 -0.307692  0.153846  0.444444      4.000000
 -0.230769  0.153846  0.444444      4.000000
 -0.153846  0.153846  0.444444      4.000000
 -0.076923  0.153846  0.444444      4.000000
  0.230769  0.230769  0.444444      2.000000
  0.307692  0.230769  0.444444      4.000000
  0.384615  0.230769  0.444444      4.000000
  0.461538  0.230769  0.444444      4.000000
 -0.461538  0.230769  0.444444      4.000000
 -0.384615  0.230769  0.444444      4.000000
 -0.307692  0.230769  0.444444      4.000000
 -0.230769  0.230769  0.444444      4.000000
 -0.153846  0.230769  0.444444      4.000000
 -0.076923  0.230769  0.444444      4.000000
  0.307692  0.307692  0.444444      2.000000
  0.384615  0.307692  0.444444      4.000000
  0.461538  0.307692  0.444444      4.000000
 -0.461538  0.307692  0.444444      4.000000
 -0.384615  0.307692  0.444444      4.000000
 -0.307692  0.307692  0.444444      4.000000
 -0.230769  0.307692  0.444444      4.000000
 -0.153846  0.307692  0.444444      4.000000
 -0.076923  0.307692  0.444444      4.000000
  0.384615  0.384615  0.444444      2.000000
  0.461538  0.384615  0.444444      4.000000
 -0.461538  0.384615  0.444444      4.000000
 -0.384615  0.384615  0.444444      4.000000
 -0.307692  0.384615  0.444444      4.000000
 -0.230769  0.384615  0.444444      4.000000
 -0.153846  0.384615  0.444444      4.000000
 -0.076923  0.384615  0.444444      4.000000
  0.461538  0.461538  0.444444      2.000000
 -0.461538  0.461538  0.444444      4.000000
 -0.384615  0.461538  0.444444      4.000000
 -0.307692  0.461538  0.444444      4.000000
 -0.230769  0.461538  0.444444      4.000000
 -0.153846  0.461538  0.444444      4.000000
 -0.076923  0.461538  0.444444      4.000000
 -0.461538 -0.461538  0.444444      2.000000
 -0.384615 -0.461538  0.444444      4.000000
 -0.307692 -0.461538  0.444444      4.000000
 -0.230769 -0.461538  0.444444      4.000000
 -0.153846 -0.461538  0.444444      4.000000
 -0.076923 -0.461538  0.444444      4.000000
 -0.384615 -0.384615  0.444444      2.000000
 -0.307692 -0.384615  0.444444      4.000000
 -0.230769 -0.384615  0.444444      4.000000
 -0.153846 -0.384615  0.444444      4.000000
 -0.076923 -0.384615  0.444444      4.000000
 -0.307692 -0.307692  0.444444      2.000000
 -0.230769 -0.307692  0.444444      4.000000
 -0.153846 -0.307692  0.444444      4.000000
 -0.076923 -0.307692  0.444444      4.000000
 -0.230769 -0.230769  0.444444      2.000000
 -0.153846 -0.230769  0.444444      4.000000
 -0.076923 -0.230769  0.444444      4.000000
 -0.153846 -0.153846  0.444444      2.000000
 -0.076923 -0.153846  0.444444      4.000000
 -0.076923 -0.076923  0.444444      2.000000
  0.000000  0.000000  0.500000      1.000000
  0.076923  0.000000  0.500000      4.000000
  0.153846  0.000000  0.500000      4.000000
  0.230769  0.000000  0.500000      4.000000
  0.307692  0.000000  0.500000      4.000000
  0.384615  0.000000  0.500000      4.000000
  0.461538  0.000000  0.500000      4.000000
  0.076923  0.076923  0.500000      2.000000
  0.153846  0.076923  0.500000      4.000000
  0.230769  0.076923  0.500000      4.000000
  0.307692  0.076923  0.500000      4.000000
  0.384615  0.076923  0.500000      4.000000
  0.461538  0.076923  0.500000      4.000000
 -0.461538  0.076923  0.500000      4.000000
 -0.384615  0.076923  0.500000      4.000000
 -0.307692  0.076923  0.500000      4.000000
 -0.230769  0.076923  0.500000      4.000000
 -0.153846  0.076923  0.500000      4.000000
 -0.076923  0.076923  0.500000      2.000000
  0.153846  0.153846  0.500000      2.000000
  0.230769  0.153846  0.500000      4.000000
  0.307692  0.153846  0.500000      4.000000
  0.384615  0.153846  0.500000      4.000000
  0.461538  0.153846  0.500000      4.000000
 -0.461538  0.153846  0.500000      4.000000
 -0.384615  0.153846  0.500000      4.000000
 -0.307692  0.153846  0.500000      4.000000
 -0.230769  0.153846  0.500000      4.000000
 -0.153846  0.153846  0.500000      2.000000
  0.230769  0.230769  0.500000      2.000000
  0.307692  0.230769  0.500000      4.000000
  0.384615  0.230769  0.500000      4.000000
  0.461538  0.230769  0.500000      4.000000
 -0.461538  0.230769  0.500000      4.000000
 -0.384615  0.230769  0.500000      4.000000
 -0.307692  0.230769  0.500000      4.000000
 -0.230769  0.230769  0.500000      2.000000
  0.307692  0.307692  0.500000      2.000000
  0.384615  0.307692  0.500000      4.000000
  0.461538  0.307692  0.500000      4.000000
 -0.461538  0.307692  0.500000      4.000000
 -0.384615  0.307692  0.500000      4.000000
 -0.307692  0.307692  0.500000      2.000000
  0.384615  0.384615  0.500000      2.000000
  0.461538  0.384615  0.500000      4.000000
 -0.461538  0.384615  0.500000      4.000000
 -0.384615  0.384615  0.500000      2.000000
  0.461538  0.461538  0.500000      2.000000
 -0.461538  0.461538  0.500000      2.000000
 
 Following cartesian coordinates:
            Coordinates               Weight
  0.000000  0.000000  0.000000      1.000000
  0.014164 -0.004645  0.013285      4.000000
  0.028328 -0.009291  0.026570      4.000000
  0.042491 -0.013936  0.039854      4.000000
  0.056655 -0.018581  0.053139      4.000000
  0.070819 -0.023227  0.066424      4.000000
  0.084983 -0.027872  0.079709      4.000000
  0.028328 -0.000000  0.026570      2.000000
  0.042491 -0.004645  0.039854      4.000000
  0.056655 -0.009291  0.053139      4.000000
  0.070819 -0.013936  0.066424      4.000000
  0.084983 -0.018581  0.079709      4.000000
  0.099147 -0.023227  0.092993      4.000000
 -0.070819  0.032517 -0.066424      4.000000
 -0.056655  0.027872 -0.053139      4.000000
 -0.042491  0.023227 -0.039854      4.000000
 -0.028328  0.018581 -0.026570      4.000000
 -0.014164  0.013936 -0.013285      4.000000
  0.000000  0.009291  0.000000      2.000000
  0.056655  0.000000  0.053139      2.000000
  0.070819 -0.004645  0.066424      4.000000
  0.084983 -0.009291  0.079709      4.000000
  0.099147 -0.013936  0.092993      4.000000
  0.113310 -0.018581  0.106278      4.000000
 -0.056655  0.037163 -0.053139      4.000000
 -0.042491  0.032517 -0.039854      4.000000
 -0.028328  0.027872 -0.026570      4.000000
 -0.014164  0.023227 -0.013285      4.000000
  0.000000  0.018581  0.000000      2.000000
  0.084983  0.000000  0.079709      2.000000
  0.099147 -0.004645  0.092993      4.000000
  0.113310 -0.009291  0.106278      4.000000
  0.127474 -0.013936  0.119563      4.000000
 -0.042491  0.041808 -0.039854      4.000000
 -0.028328  0.037163 -0.026570      4.000000
 -0.014164  0.032517 -0.013285      4.000000
  0.000000  0.027872  0.000000      2.000000
  0.113310 -0.000000  0.106278      2.000000
  0.127474 -0.004645  0.119563      4.000000
  0.141638 -0.009291  0.132848      4.000000
 -0.028328  0.046453 -0.026570      4.000000
 -0.014164  0.041808 -0.013285      4.000000
  0.000000  0.037163  0.000000      2.000000
  0.141638  0.000000  0.132848      2.000000
  0.155802 -0.004645  0.146132      4.000000
 -0.014164  0.051099 -0.013285      4.000000
  0.000000  0.046453  0.000000      2.000000
  0.169965  0.000000  0.159417      2.000000
  0.000000  0.055744  0.000000      2.000000
  0.000260 -0.000000  0.020141      2.000000
  0.014424 -0.004645  0.033426      4.000000
  0.028588 -0.009291  0.046711      4.000000
  0.042751 -0.013936  0.059996      4.000000
  0.056915 -0.018581  0.073281      4.000000
  0.071079 -0.023227  0.086565      4.000000
  0.085243 -0.027872  0.099850      4.000000
 -0.084723  0.027872 -0.059567      4.000000
 -0.070559  0.023227 -0.046282      4.000000
 -0.056395  0.018581 -0.032998      4.000000
 -0.042231  0.013936 -0.019713      4.000000
 -0.028068  0.009291 -0.006428      4.000000
 -0.013904  0.004645  0.006857      4.000000
  0.028588 -0.000000  0.046711      2.000000
  0.042751 -0.004645  0.059996      4.000000
  0.056915 -0.009291  0.073281      4.000000
  0.071079 -0.013936  0.086565      4.000000
  0.085243 -0.018581  0.099850      4.000000
  0.099407 -0.023227  0.113135      4.000000
 -0.070559  0.032517 -0.046282      4.000000
 -0.056395  0.027872 -0.032998      4.000000
 -0.042231  0.023227 -0.019713      4.000000
 -0.028068  0.018581 -0.006428      4.000000
 -0.013904  0.013936  0.006857      4.000000
  0.000260  0.009291  0.020141      4.000000
  0.056915  0.000000  0.073281      2.000000
  0.071079 -0.004645  0.086565      4.000000
  0.085243 -0.009291  0.099850      4.000000
  0.099407 -0.013936  0.113135      4.000000
  0.113570 -0.018581  0.126420      4.000000
 -0.056395  0.037163 -0.032998      4.000000
 -0.042231  0.032517 -0.019713      4.000000
 -0.028068  0.027872 -0.006428      4.000000
 -0.013904  0.023227  0.006857      4.000000
  0.000260  0.018581  0.020141      4.000000
  0.014424  0.013936  0.033426      4.000000
  0.085243  0.000000  0.099850      2.000000
  0.099407 -0.004645  0.113135      4.000000
  0.113570 -0.009291  0.126420      4.000000
  0.127734 -0.013936  0.139704      4.000000
 -0.042231  0.041808 -0.019713      4.000000
 -0.028068  0.037163 -0.006428      4.000000
 -0.013904  0.032517  0.006857      4.000000
  0.000260  0.027872  0.020141      4.000000
  0.014424  0.023227  0.033426      4.000000
  0.028588  0.018581  0.046711      4.000000
  0.113570 -0.000000  0.126420      2.000000
  0.127734 -0.004645  0.139704      4.000000
  0.141898 -0.009291  0.152989      4.000000
 -0.028068  0.046453 -0.006428      4.000000
 -0.013904  0.041808  0.006857      4.000000
  0.000260  0.037163  0.020141      4.000000
  0.014424  0.032517  0.033426      4.000000
  0.028588  0.027872  0.046711      4.000000
  0.042751  0.023227  0.059996      4.000000
  0.141898 -0.000000  0.152989      2.000000
  0.156062 -0.004645  0.166274      4.000000
 -0.013904  0.051099  0.006857      4.000000
  0.000260  0.046453  0.020141      4.000000
  0.014424  0.041808  0.033426      4.000000
  0.028588  0.037163  0.046711      4.000000
  0.042751  0.032517  0.059996      4.000000
  0.056915  0.027872  0.073281      4.000000
  0.170226  0.000000  0.179559      2.000000
  0.000260  0.055744  0.020141      4.000000
  0.014424  0.051099  0.033426      4.000000
  0.028588  0.046453  0.046711      4.000000
  0.042751  0.041808  0.059996      4.000000
  0.056915  0.037163  0.073281      4.000000
  0.071079  0.032517  0.086565      4.000000
 -0.169705  0.000000 -0.139276      2.000000
 -0.155542 -0.004645 -0.125991      4.000000
 -0.141378 -0.009291 -0.112706      4.000000
 -0.127214 -0.013936 -0.099421      4.000000
 -0.113050 -0.018581 -0.086137      4.000000
 -0.098886 -0.023227 -0.072852      4.000000
 -0.141378  0.000000 -0.112706      2.000000
 -0.127214 -0.004645 -0.099421      4.000000
 -0.113050 -0.009291 -0.086137      4.000000
 -0.098886 -0.013936 -0.072852      4.000000
 -0.084723 -0.018581 -0.059567      4.000000
 -0.113050  0.000000 -0.086137      2.000000
 -0.098886 -0.004645 -0.072852      4.000000
 -0.084723 -0.009291 -0.059567      4.000000
 -0.070559 -0.013936 -0.046282      4.000000
 -0.084723 -0.000000 -0.059567      2.000000
 -0.070559 -0.004645 -0.046282      4.000000
 -0.056395 -0.009291 -0.032998      4.000000
 -0.056395  0.000000 -0.032998      2.000000
 -0.042231 -0.004645 -0.019713      4.000000
 -0.028068  0.000000 -0.006428      2.000000
  0.000520 -0.000000  0.040283      2.000000
  0.014684 -0.004645  0.053568      4.000000
  0.028848 -0.009291  0.066853      4.000000
  0.043011 -0.013936  0.080137      4.000000
  0.057175 -0.018581  0.093422      4.000000
  0.071339 -0.023227  0.106707      4.000000
  0.085503 -0.027872  0.119992      4.000000
 -0.084463  0.027872 -0.039426      4.000000
 -0.070299  0.023227 -0.026141      4.000000
 -0.056135  0.018581 -0.012856      4.000000
 -0.041971  0.013936  0.000429      4.000000
 -0.027807  0.009291  0.013713      4.000000
 -0.013644  0.004645  0.026998      4.000000
  0.028848 -0.000000  0.066853      2.000000
  0.043011 -0.004645  0.080137      4.000000
  0.057175 -0.009291  0.093422      4.000000
  0.071339 -0.013936  0.106707      4.000000
  0.085503 -0.018581  0.119992      4.000000
  0.099667 -0.023227  0.133276      4.000000
 -0.070299  0.032517 -0.026141      4.000000
 -0.056135  0.027872 -0.012856      4.000000
 -0.041971  0.023227  0.000429      4.000000
 -0.027807  0.018581  0.013713      4.000000
 -0.013644  0.013936  0.026998      4.000000
  0.000520  0.009291  0.040283      4.000000
  0.057175  0.000000  0.093422      2.000000
  0.071339 -0.004645  0.106707      4.000000
  0.085503 -0.009291  0.119992      4.000000
  0.099667 -0.013936  0.133276      4.000000
  0.113830 -0.018581  0.146561      4.000000
 -0.056135  0.037163 -0.012856      4.000000
 -0.041971  0.032517  0.000429      4.000000
 -0.027807  0.027872  0.013713      4.000000
 -0.013644  0.023227  0.026998      4.000000
  0.000520  0.018581  0.040283      4.000000
  0.014684  0.013936  0.053568      4.000000
  0.085503  0.000000  0.119992      2.000000
  0.099667 -0.004645  0.133276      4.000000
  0.113830 -0.009291  0.146561      4.000000
  0.127994 -0.013936  0.159846      4.000000
 -0.041971  0.041808  0.000429      4.000000
 -0.027807  0.037163  0.013713      4.000000
 -0.013644  0.032517  0.026998      4.000000
  0.000520  0.027872  0.040283      4.000000
  0.014684  0.023227  0.053568      4.000000
  0.028848  0.018581  0.066853      4.000000
  0.113830 -0.000000  0.146561      2.000000
  0.127994 -0.004645  0.159846      4.000000
  0.142158 -0.009291  0.173131      4.000000
 -0.027807  0.046453  0.013713      4.000000
 -0.013644  0.041808  0.026998      4.000000
  0.000520  0.037163  0.040283      4.000000
  0.014684  0.032517  0.053568      4.000000
  0.028848  0.027872  0.066853      4.000000
  0.043011  0.023227  0.080137      4.000000
  0.142158  0.000000  0.173131      2.000000
  0.156322 -0.004645  0.186415      4.000000
 -0.013644  0.051099  0.026998      4.000000
  0.000520  0.046453  0.040283      4.000000
  0.014684  0.041808  0.053568      4.000000
  0.028848  0.037163  0.066853      4.000000
  0.043011  0.032517  0.080137      4.000000
  0.057175  0.027872  0.093422      4.000000
  0.170486  0.000000  0.199700      2.000000
  0.000520  0.055744  0.040283      4.000000
  0.014684  0.051099  0.053568      4.000000
  0.028848  0.046453  0.066853      4.000000
  0.043011  0.041808  0.080137      4.000000
  0.057175  0.037163  0.093422      4.000000
  0.071339  0.032517  0.106707      4.000000
 -0.169445  0.000000 -0.119134      2.000000
 -0.155282 -0.004645 -0.105849      4.000000
 -0.141118 -0.009291 -0.092565      4.000000
 -0.126954 -0.013936 -0.079280      4.000000
 -0.112790 -0.018581 -0.065995      4.000000
 -0.098626 -0.023227 -0.052710      4.000000
 -0.141118  0.000000 -0.092565      2.000000
 -0.126954 -0.004645 -0.079280      4.000000
 -0.112790 -0.009291 -0.065995      4.000000
 -0.098626 -0.013936 -0.052710      4.000000
 -0.084463 -0.018581 -0.039426      4.000000
 -0.112790 -0.000000 -0.065995      2.000000
 -0.098626 -0.004645 -0.052710      4.000000
 -0.084463 -0.009291 -0.039426      4.000000
 -0.070299 -0.013936 -0.026141      4.000000
 -0.084463 -0.000000 -0.039426      2.000000
 -0.070299 -0.004645 -0.026141      4.000000
 -0.056135 -0.009291 -0.012856      4.000000
 -0.056135  0.000000 -0.012856      2.000000
 -0.041971 -0.004645  0.000429      4.000000
 -0.027807  0.000000  0.013713      2.000000
  0.000780 -0.000000  0.060424      2.000000
  0.014944 -0.004645  0.073709      4.000000
  0.029108 -0.009291  0.086994      4.000000
  0.043272 -0.013936  0.100279      4.000000
  0.057435 -0.018581  0.113564      4.000000
  0.071599 -0.023227  0.126848      4.000000
  0.085763 -0.027872  0.140133      4.000000
 -0.084203  0.027872 -0.019284      4.000000
 -0.070039  0.023227 -0.005999      4.000000
 -0.055875  0.018581  0.007285      4.000000
 -0.041711  0.013936  0.020570      4.000000
 -0.027547  0.009291  0.033855      4.000000
 -0.013384  0.004645  0.047140      4.000000
  0.029108 -0.000000  0.086994      2.000000
  0.043272 -0.004645  0.100279      4.000000
  0.057435 -0.009291  0.113564      4.000000
  0.071599 -0.013936  0.126848      4.000000
  0.085763 -0.018581  0.140133      4.000000
  0.099927 -0.023227  0.153418      4.000000
 -0.070039  0.032517 -0.005999      4.000000
 -0.055875  0.027872  0.007285      4.000000
 -0.041711  0.023227  0.020570      4.000000
 -0.027547  0.018581  0.033855      4.000000
 -0.013384  0.013936  0.047140      4.000000
  0.000780  0.009291  0.060424      4.000000
  0.057435  0.000000  0.113564      2.000000
  0.071599 -0.004645  0.126848      4.000000
  0.085763 -0.009291  0.140133      4.000000
  0.099927 -0.013936  0.153418      4.000000
  0.114090 -0.018581  0.166703      4.000000
 -0.055875  0.037163  0.007285      4.000000
 -0.041711  0.032517  0.020570      4.000000
 -0.027547  0.027872  0.033855      4.000000
 -0.013384  0.023227  0.047140      4.000000
  0.000780  0.018581  0.060424      4.000000
  0.014944  0.013936  0.073709      4.000000
  0.085763  0.000000  0.140133      2.000000
  0.099927 -0.004645  0.153418      4.000000
  0.114090 -0.009291  0.166703      4.000000
  0.128254 -0.013936  0.179987      4.000000
 -0.041711  0.041808  0.020570      4.000000
 -0.027547  0.037163  0.033855      4.000000
 -0.013384  0.032517  0.047140      4.000000
  0.000780  0.027872  0.060424      4.000000
  0.014944  0.023227  0.073709      4.000000
  0.029108  0.018581  0.086994      4.000000
  0.114090 -0.000000  0.166703      2.000000
  0.128254 -0.004645  0.179987      4.000000
  0.142418 -0.009291  0.193272      4.000000
 -0.027547  0.046453  0.033855      4.000000
 -0.013384  0.041808  0.047140      4.000000
  0.000780  0.037163  0.060424      4.000000
  0.014944  0.032517  0.073709      4.000000
  0.029108  0.027872  0.086994      4.000000
  0.043272  0.023227  0.100279      4.000000
  0.142418  0.000000  0.193272      2.000000
  0.156582 -0.004645  0.206557      4.000000
 -0.013384  0.051099  0.047140      4.000000
  0.000780  0.046453  0.060424      4.000000
  0.014944  0.041808  0.073709      4.000000
  0.029108  0.037163  0.086994      4.000000
  0.043272  0.032517  0.100279      4.000000
  0.057435  0.027872  0.113564      4.000000
  0.170746  0.000000  0.219842      2.000000
  0.000780  0.055744  0.060424      4.000000
  0.014944  0.051099  0.073709      4.000000
  0.029108  0.046453  0.086994      4.000000
  0.043272  0.041808  0.100279      4.000000
  0.057435  0.037163  0.113564      4.000000
  0.071599  0.032517  0.126848      4.000000
 -0.169185  0.000000 -0.098993      2.000000
 -0.155022 -0.004645 -0.085708      4.000000
 -0.140858 -0.009291 -0.072423      4.000000
 -0.126694 -0.013936 -0.059138      4.000000
 -0.112530 -0.018581 -0.045854      4.000000
 -0.098366 -0.023227 -0.032569      4.000000
 -0.140858  0.000000 -0.072423      2.000000
 -0.126694 -0.004645 -0.059138      4.000000
 -0.112530 -0.009291 -0.045854      4.000000
 -0.098366 -0.013936 -0.032569      4.000000
 -0.084203 -0.018581 -0.019284      4.000000
 -0.112530  0.000000 -0.045854      2.000000
 -0.098366 -0.004645 -0.032569      4.000000
 -0.084203 -0.009291 -0.019284      4.000000
 -0.070039 -0.013936 -0.005999      4.000000
 -0.084203 -0.000000 -0.019284      2.000000
 -0.070039 -0.004645 -0.005999      4.000000
 -0.055875 -0.009291  0.007285      4.000000
 -0.055875  0.000000  0.007285      2.000000
 -0.041711 -0.004645  0.020570      4.000000
 -0.027547  0.000000  0.033855      2.000000
  0.001040 -0.000000  0.080566      2.000000
  0.015204 -0.004645  0.093851      4.000000
  0.029368 -0.009291  0.107135      4.000000
  0.043532 -0.013936  0.120420      4.000000
  0.057695 -0.018581  0.133705      4.000000
  0.071859 -0.023227  0.146990      4.000000
  0.086023 -0.027872  0.160275      4.000000
 -0.083943  0.027872  0.000857      4.000000
 -0.069779  0.023227  0.014142      4.000000
 -0.055615  0.018581  0.027427      4.000000
 -0.041451  0.013936  0.040712      4.000000
 -0.027287  0.009291  0.053996      4.000000
 -0.013124  0.004645  0.067281      4.000000
  0.029368 -0.000000  0.107135      2.000000
  0.043532 -0.004645  0.120420      4.000000
  0.057695 -0.009291  0.133705      4.000000
  0.071859 -0.013936  0.146990      4.000000
  0.086023 -0.018581  0.160275      4.000000
  0.100187 -0.023227  0.173559      4.000000
 -0.069779  0.032517  0.014142      4.000000
 -0.055615  0.027872  0.027427      4.000000
 -0.041451  0.023227  0.040712      4.000000
 -0.027287  0.018581  0.053996      4.000000
 -0.013124  0.013936  0.067281      4.000000
  0.001040  0.009291  0.080566      4.000000
  0.057695  0.000000  0.133705      2.000000
  0.071859 -0.004645  0.146990      4.000000
  0.086023 -0.009291  0.160275      4.000000
  0.100187 -0.013936  0.173559      4.000000
  0.114351 -0.018581  0.186844      4.000000
 -0.055615  0.037163  0.027427      4.000000
 -0.041451  0.032517  0.040712      4.000000
 -0.027287  0.027872  0.053996      4.000000
 -0.013124  0.023227  0.067281      4.000000
  0.001040  0.018581  0.080566      4.000000
  0.015204  0.013936  0.093851      4.000000
  0.086023  0.000000  0.160275      2.000000
  0.100187 -0.004645  0.173559      4.000000
  0.114351 -0.009291  0.186844      4.000000
  0.128514 -0.013936  0.200129      4.000000
 -0.041451  0.041808  0.040712      4.000000
 -0.027287  0.037163  0.053996      4.000000
 -0.013124  0.032517  0.067281      4.000000
  0.001040  0.027872  0.080566      4.000000
  0.015204  0.023227  0.093851      4.000000
  0.029368  0.018581  0.107135      4.000000
  0.114351  0.000000  0.186844      2.000000
  0.128514 -0.004645  0.200129      4.000000
  0.142678 -0.009291  0.213414      4.000000
 -0.027287  0.046453  0.053996      4.000000
 -0.013124  0.041808  0.067281      4.000000
  0.001040  0.037163  0.080566      4.000000
  0.015204  0.032517  0.093851      4.000000
  0.029368  0.027872  0.107135      4.000000
  0.043532  0.023227  0.120420      4.000000
  0.142678  0.000000  0.213414      2.000000
  0.156842 -0.004645  0.226698      4.000000
 -0.013124  0.051099  0.067281      4.000000
  0.001040  0.046453  0.080566      4.000000
  0.015204  0.041808  0.093851      4.000000
  0.029368  0.037163  0.107135      4.000000
  0.043532  0.032517  0.120420      4.000000
  0.057695  0.027872  0.133705      4.000000
  0.171006  0.000000  0.239983      2.000000
  0.001040  0.055744  0.080566      4.000000
  0.015204  0.051099  0.093851      4.000000
  0.029368  0.046453  0.107135      4.000000
  0.043532  0.041808  0.120420      4.000000
  0.057695  0.037163  0.133705      4.000000
  0.071859  0.032517  0.146990      4.000000
 -0.168925  0.000000 -0.078851      2.000000
 -0.154761 -0.004645 -0.065566      4.000000
 -0.140598 -0.009291 -0.052282      4.000000
 -0.126434 -0.013936 -0.038997      4.000000
 -0.112270 -0.018581 -0.025712      4.000000
 -0.098106 -0.023227 -0.012427      4.000000
 -0.140598  0.000000 -0.052282      2.000000
 -0.126434 -0.004645 -0.038997      4.000000
 -0.112270 -0.009291 -0.025712      4.000000
 -0.098106 -0.013936 -0.012427      4.000000
 -0.083943 -0.018581  0.000857      4.000000
 -0.112270  0.000000 -0.025712      2.000000
 -0.098106 -0.004645 -0.012427      4.000000
 -0.083943 -0.009291  0.000857      4.000000
 -0.069779 -0.013936  0.014142      4.000000
 -0.083943 -0.000000  0.000857      2.000000
 -0.069779 -0.004645  0.014142      4.000000
 -0.055615 -0.009291  0.027427      4.000000
 -0.055615 -0.000000  0.027427      2.000000
 -0.041451 -0.004645  0.040712      4.000000
 -0.027287 -0.000000  0.053996      2.000000
  0.001300 -0.000000  0.100707      2.000000
  0.015464 -0.004645  0.113992      4.000000
  0.029628 -0.009291  0.127277      4.000000
  0.043792 -0.013936  0.140562      4.000000
  0.057955 -0.018581  0.153847      4.000000
  0.072119 -0.023227  0.167131      4.000000
  0.086283 -0.027872  0.180416      4.000000
 -0.083682  0.027872  0.020999      4.000000
 -0.069519  0.023227  0.034284      4.000000
 -0.055355  0.018581  0.047568      4.000000
 -0.041191  0.013936  0.060853      4.000000
 -0.027027  0.009291  0.074138      4.000000
 -0.012864  0.004645  0.087423      4.000000
  0.029628 -0.000000  0.127277      2.000000
  0.043792 -0.004645  0.140562      4.000000
  0.057955 -0.009291  0.153847      4.000000
  0.072119 -0.013936  0.167131      4.000000
[...]
     47      11.5192      0.00000
     48      11.9008      0.00000

 k-point   821 :       0.3846    0.3846    0.5000
  band No.  band energies     occupation 
      1     -69.5900      2.00000
      2     -33.9777      2.00000
      3     -33.9110      2.00000
      4     -33.7078      2.00000
      5     -16.9306      2.00000
      6     -16.9069      2.00000
      7     -16.7303      2.00000
      8     -16.7118      2.00000
      9     -16.6872      2.00000
     10     -16.6800      2.00000
     11     -16.6675      2.00000
     12     -16.6567      2.00000
     13     -16.6517      2.00000
     14     -16.6467      2.00000
     15     -12.3321      2.00000
     16     -11.9235      2.00000
     17     -11.8489      2.00000
     18     -11.8226      2.00000
     19     -11.5104      2.00000
     20     -10.8815      2.00000
     21      -4.4042      2.00000
     22      -4.3044      2.00000
     23      -1.9236      2.00000
     24      -0.3672      2.00000
     25      -0.2685      2.00000
     26       0.0721      2.00000
     27       0.3226      2.00000
     28       0.6386      2.00000
     29       1.2149      2.00000
     30       1.4640      2.00000
     31       2.5447      2.00000
     32       2.6055      2.00000
     33       3.3692      2.00000
     34       3.4788      2.00000
     35       3.8765      2.00000
     36       3.9564      2.00000
     37       4.1202      2.00000
     38       4.3123      2.00000
     39       4.4734      2.00000
     40       4.8299      2.00000
     41       8.8630      0.00000
     42       9.2376      0.00000
     43       9.3351      0.00000
     44       9.5133      0.00000
     45      10.0460      0.00000
     46      10.9618      0.00000
     47      11.0127      0.00000
     48      11.5394      0.00000

 k-point   822 :       0.4615    0.3846    0.5000
  band No.  band energies     occupation 
      1     -69.5899      2.00000
      2     -33.9793      2.00000
      3     -33.9194      2.00000
      4     -33.7073      2.00000
      5     -16.9433      2.00000
      6     -16.9175      2.00000
      7     -16.7326      2.00000
      8     -16.7098      2.00000
      9     -16.6769      2.00000
     10     -16.6694      2.00000
     11     -16.6679      2.00000
     12     -16.6546      2.00000
     13     -16.6491      2.00000
     14     -16.6461      2.00000
     15     -12.1118      2.00000
     16     -11.8749      2.00000
     17     -11.7946      2.00000
     18     -11.7731      2.00000
     19     -11.4926      2.00000
     20     -10.8708      2.00000
     21      -4.5793      2.00000
     22      -4.4446      2.00000
     23      -1.9154      2.00000
     24      -0.8284      2.00000
     25      -0.4119      2.00000
     26      -0.3241      2.00000
     27       0.2939      2.00000
     28       0.3939      2.00000
     29       1.2190      2.00000
     30       1.4970      2.00000
     31       2.2674      2.00000
     32       2.5041      2.00000
     33       3.2816      2.00000
     34       3.6611      2.00000
     35       4.1435      2.00000
     36       4.1830      2.00000
     37       4.2725      2.00000
     38       4.3719      2.00000
     39       4.4715      2.00000
     40       4.7956      2.00000
     41       9.0045      0.00000
     42       9.2027      0.00000
     43       9.4913      0.00000
     44       9.5971      0.00000
     45       9.9790      0.00000
     46      11.1968      0.00000
     47      11.2505      0.00000
     48      11.6769      0.00000

 k-point   823 :      -0.4615    0.3846    0.5000
  band No.  band energies     occupation 
      1     -69.5899      2.00000
      2     -33.9809      2.00000
      3     -33.9249      2.00000
      4     -33.7070      2.00000
      5     -16.9519      2.00000
      6     -16.9252      2.00000
      7     -16.7347      2.00000
      8     -16.7096      2.00000
      9     -16.6716      2.00000
     10     -16.6695      2.00000
     11     -16.6616      2.00000
     12     -16.6516      2.00000
     13     -16.6452      2.00000
     14     -16.6446      2.00000
     15     -11.9772      2.00000
     16     -11.8340      2.00000
     17     -11.7532      2.00000
     18     -11.7124      2.00000
     19     -11.4770      2.00000
     20     -10.8660      2.00000
     21      -4.7052      2.00000
     22      -4.5505      2.00000
     23      -1.9041      2.00000
     24      -1.3024      2.00000
     25      -0.5207      2.00000
     26      -0.4155      2.00000
     27       0.2199      2.00000
     28       0.3488      2.00000
     29       1.2312      2.00000
     30       1.5726      2.00000
     31       1.9855      2.00000
     32       2.4608      2.00000
     33       3.1565      2.00000
     34       3.7369      2.00000
     35       4.1963      2.00000
     36       4.3619      2.00000
     37       4.3746      2.00000
     38       4.4160      2.00000
     39       4.5735      2.00000
     40       4.7978      2.00000
     41       9.0547      0.00000
     42       9.1877      0.00000
     43       9.6171      0.00000
     44       9.7570      0.00000
     45       9.9334      0.00000
     46      11.3482      0.00000
     47      11.4376      0.00000
     48      11.8002      0.00000

 k-point   824 :      -0.3846    0.3846    0.5000
  band No.  band energies     occupation 
      1     -69.5899      2.00000
      2     -33.9816      2.00000
      3     -33.9267      2.00000
      4     -33.7069      2.00000
      5     -16.9549      2.00000
      6     -16.9281      2.00000
      7     -16.7353      2.00000
      8     -16.7098      2.00000
      9     -16.6704      2.00000
     10     -16.6693      2.00000
     11     -16.6600      2.00000
     12     -16.6504      2.00000
     13     -16.6434      2.00000
     14     -16.6432      2.00000
     15     -11.9500      2.00000
     16     -11.8125      2.00000
     17     -11.7267      2.00000
     18     -11.6804      2.00000
     19     -11.4702      2.00000
     20     -10.8675      2.00000
     21      -4.7497      2.00000
     22      -4.5897      2.00000
     23      -1.8955      2.00000
     24      -1.4800      2.00000
     25      -0.5817      2.00000
     26      -0.4058      2.00000
     27       0.1595      2.00000
     28       0.3631      2.00000
     29       1.2435      2.00000
     30       1.6389      2.00000
     31       1.8094      2.00000
     32       2.4714      2.00000
     33       3.1412      2.00000
     34       3.7566      2.00000
     35       4.1255      2.00000
     36       4.4174      2.00000
     37       4.4386      2.00000
     38       4.4678      2.00000
     39       4.6263      2.00000
     40       4.7937      2.00000
     41       9.0190      0.00000
     42       9.1773      0.00000
     43       9.7318      0.00000
     44       9.8203      0.00000
     45       9.9253      0.00000
     46      11.3767      0.00000
     47      11.5122      0.00000
     48      11.8715      0.00000

 k-point   825 :       0.4615    0.4615    0.5000
  band No.  band energies     occupation 
      1     -69.5899      2.00000
      2     -33.9809      2.00000
      3     -33.9249      2.00000
      4     -33.7070      2.00000
      5     -16.9519      2.00000
      6     -16.9251      2.00000
      7     -16.7348      2.00000
      8     -16.7095      2.00000
      9     -16.6715      2.00000
     10     -16.6695      2.00000
     11     -16.6616      2.00000
     12     -16.6517      2.00000
     13     -16.6452      2.00000
     14     -16.6446      2.00000
     15     -11.9710      2.00000
     16     -11.8343      2.00000
     17     -11.7431      2.00000
     18     -11.7306      2.00000
     19     -11.4770      2.00000
     20     -10.8625      2.00000
     21      -4.7064      2.00000
     22      -4.5508      2.00000
     23      -1.9039      2.00000
     24      -1.3024      2.00000
     25      -0.5212      2.00000
     26      -0.4199      2.00000
     27       0.2414      2.00000
     28       0.3322      2.00000
     29       1.3407      2.00000
     30       1.4375      2.00000
     31       2.0696      2.00000
     32       2.4090      2.00000
     33       3.1235      2.00000
     34       3.7339      2.00000
     35       4.2547      2.00000
     36       4.3633      2.00000
     37       4.3956      2.00000
     38       4.3965      2.00000
     39       4.5301      2.00000
     40       4.8096      2.00000
     41       9.0545      0.00000
     42       9.3347      0.00000
     43       9.4569      0.00000
     44       9.7583      0.00000
     45       9.9422      0.00000
     46      11.4012      0.00000
     47      11.4121      0.00000
     48      11.7709      0.00000

 k-point   826 :      -0.4615    0.4615    0.5000
  band No.  band energies     occupation 
      1     -69.5899      2.00000
      2     -33.9816      2.00000
      3     -33.9267      2.00000
      4     -33.7069      2.00000
      5     -16.9549      2.00000
      6     -16.9279      2.00000
      7     -16.7356      2.00000
      8     -16.7096      2.00000
      9     -16.6703      2.00000
     10     -16.6692      2.00000
     11     -16.6601      2.00000
     12     -16.6504      2.00000
     13     -16.6434      2.00000
     14     -16.6432      2.00000
     15     -11.9363      2.00000
     16     -11.8125      2.00000
     17     -11.7266      2.00000
     18     -11.7010      2.00000
     19     -11.4703      2.00000
     20     -10.8606      2.00000
     21      -4.7524      2.00000
     22      -4.5901      2.00000
     23      -1.8956      2.00000
     24      -1.4801      2.00000
     25      -0.5835      2.00000
     26      -0.4181      2.00000
     27       0.1884      2.00000
     28       0.3551      2.00000
     29       1.3434      2.00000
     30       1.4835      2.00000
     31       1.9415      2.00000
     32       2.4040      2.00000
     33       3.0650      2.00000
     34       3.7523      2.00000
     35       4.2408      2.00000
     36       4.4183      2.00000
     37       4.4399      2.00000
     38       4.4567      2.00000
     39       4.5482      2.00000
     40       4.8206      2.00000
     41       9.0588      0.00000
     42       9.3157      0.00000
     43       9.5312      0.00000
     44       9.8288      0.00000
     45       9.9280      0.00000
     46      11.4437      0.00000
     47      11.4980      0.00000
     48      11.8172      0.00000


--------------------------------------------------------------------------------------------------------


 soft charge-density along one line, spin component            1
         0         1         2         3         4         5         6         7         8         9
 total charge-density along one line
 
 pseudopotential strength for first ion, spin component:            1
 12.083 -14.695  -0.000  -0.020  -0.026   0.000   0.025   0.032
-14.695  17.889   0.000   0.026   0.033  -0.000  -0.032  -0.041
 -0.000   0.000  -8.180  -0.000  -0.000   9.769   0.000   0.000
 -0.020   0.026  -0.000  -8.231  -0.043   0.000   9.836   0.057
 -0.026   0.033  -0.000  -0.043  -8.238   0.000   0.057   9.845
  0.000  -0.000   9.769   0.000   0.000 -11.498  -0.000  -0.000
  0.025  -0.032   0.000   9.836   0.057  -0.000 -11.587  -0.076
  0.032  -0.041   0.000   0.057   9.845  -0.000  -0.076 -11.599
 total augmentation occupancy for first ion, spin component:            1
  2.815   0.448  -0.000   0.089   0.113  -0.000   0.036   0.046
  0.448   0.102  -0.000   0.072   0.093  -0.000   0.018   0.022
 -0.000  -0.000   2.058  -0.000  -0.000   0.211  -0.000  -0.000
  0.089   0.072  -0.000   2.162   0.171  -0.000   0.283   0.076
  0.113   0.093  -0.000   0.171   2.200  -0.000   0.076   0.297
 -0.000  -0.000   0.211  -0.000  -0.000   0.027  -0.000  -0.000
  0.036   0.018  -0.000   0.283   0.076  -0.000   0.047   0.022
  0.046   0.022  -0.000   0.076   0.297  -0.000   0.022   0.051


------------------------ aborting loop because EDIFF is reached ----------------------------------------





 total charge

# of ion       s       p       d       tot
------------------------------------------
    1        1.600   3.505   0.000   5.105
    2        1.596   3.539   0.000   5.135
    3        1.603   3.445   0.000   5.048
    4        1.603   3.445   0.000   5.048
    5        1.602   3.435   0.000   5.037
    6        1.602   3.435   0.000   5.037
    7        2.408   6.543   3.097  12.047
    8        1.631   0.859  10.017  12.508
    9        1.631   0.859  10.017  12.508
--------------------------------------------------
tot         15.276  29.065  23.131  67.473
 
    CHARGE:  cpu time      0.9724: real time      0.9724
    FORLOC:  cpu time      0.0023: real time      0.0023
    FORNL :  cpu time      4.4670: real time      4.4674
    STRESS:  cpu time     23.9809: real time     23.9831
    FORCOR:  cpu time      0.0059: real time      0.0058
    FORHAR:  cpu time      0.0018: real time      0.0018
    MIXING:  cpu time      0.0017: real time      0.0017
    OFIELD:  cpu time      0.0000: real time      0.0000

  FORCE on cell =-STRESS in cart. coord.  units (eV):
  Direction    XX          YY          ZZ          XY          YZ          ZX
  --------------------------------------------------------------------------------------
  Alpha Z   343.16579   343.16579   343.16579
  Ewald   -2075.75447 -2246.56034 -2029.52012     0.00000    -0.00000  -132.34224
  Hartree   717.96160   612.49990   747.61280    -0.00000     0.00000   -86.09758
  E(xc)    -392.86173  -393.06166  -392.75598     0.00000    -0.00000    -0.11840
  Local    -262.54997     3.74762  -340.71663    -0.00000    -0.00000   215.97275
  n-local    58.62972    60.39509    59.32897     0.00282    -0.01477    -0.21105
  augment   370.24042   369.75387   370.94813     0.00000    -0.00000    -0.26404
  Kinetic  1240.22597  1248.80343  1240.94376     0.05763     0.07699     2.68192
  Fock        0.00000     0.00000     0.00000     0.00000     0.00000     0.00000
  -------------------------------------------------------------------------------------
  Total      -0.94267    -1.25631    -0.99328     0.00000     0.00000    -0.37862
  in kB     -12.02970   -16.03216   -12.67560     0.00000     0.00000    -4.83168
  external pressure =      -13.58 kB  Pullay stress =        0.00 kB


 VOLUME and BASIS-vectors are now :
 -----------------------------------------------------------------------------
  energy-cutoff  :      400.00
  volume of cell :      125.55
      direct lattice vectors                 reciprocal lattice vectors
     2.748770812 -8.279607539 -0.035490096     0.184129285 -0.060389336  0.172701805
     2.748770812  8.279607539 -0.035490096     0.184129285  0.060389336  0.172701805
    -2.618792806 -0.000000000  2.792075309     0.004680938  0.000000000  0.362546957

  length of vectors
     8.724041582  8.724041582  3.828023026     0.259569603  0.259569603  0.362577174


 FORCES acting on ions
    electron-ion (+dipol)            ewald-force                    non-local-force                 convergence-correction
 -----------------------------------------------------------------------------------------------
   0.682E+02 0.226E-12 0.518E+02   -.801E+02 0.000E+00 -.610E+02   0.119E+02 0.000E+00 0.928E+01   -.424E-04 0.269E-12 -.240E-04
   -.489E+02 0.183E-11 0.222E+02   0.571E+02 0.000E+00 -.252E+02   -.827E+01 0.000E+00 0.295E+01   0.333E-04 0.212E-12 0.117E-04
   0.249E+02 0.144E+03 0.265E+02   -.261E+02 -.161E+03 -.275E+02   0.120E+01 0.177E+02 0.979E+00   0.122E-04 0.252E-04 0.335E-04
   0.249E+02 -.144E+03 0.265E+02   -.261E+02 0.161E+03 -.275E+02   0.120E+01 -.177E+02 0.979E+00   0.122E-04 -.252E-04 0.335E-04
   0.107E+02 -.806E+01 0.197E+02   -.135E+02 0.774E+01 -.251E+02   0.285E+01 0.328E+00 0.537E+01   -.267E-05 0.585E-05 -.452E-05
   0.107E+02 0.806E+01 0.197E+02   -.135E+02 -.774E+01 -.251E+02   0.285E+01 -.328E+00 0.537E+01   -.267E-05 -.585E-05 -.452E-05
   0.193E+02 -.685E-11 0.609E+01   -.196E+02 -.171E-12 -.657E+01   0.268E+00 0.000E+00 0.474E+00   0.563E-04 0.351E-12 0.508E-04
   -.579E+02 -.217E+03 -.928E+02   0.609E+02 0.231E+03 0.990E+02   -.305E+01 -.133E+02 -.614E+01   -.347E-05 0.302E-03 0.869E-05
   -.579E+02 0.217E+03 -.928E+02   0.609E+02 -.231E+03 0.990E+02   -.305E+01 0.133E+02 -.614E+01   -.347E-05 -.302E-03 0.869E-05
 -----------------------------------------------------------------------------------------------
   -.586E+01 -.135E-10 -.131E+02   0.142E-13 0.568E-13 0.000E+00   0.586E+01 0.178E-14 0.131E+02   0.594E-04 0.592E-13 0.114E-03
 
 
 POSITION                                       TOTAL-FORCE (eV/Angst)
 -----------------------------------------------------------------------------------
     -0.88903     -0.00000      2.75213        -0.011182     -0.000000      0.004316
      4.48442      0.00000     -0.04073        -0.002051     -0.000000     -0.010699
      3.16699     -1.86471      1.47356        -0.010955     -0.013894      0.003536
      3.16699      1.86471      1.47356        -0.010955      0.013894      0.003536
      1.59183     -4.10143      2.51099         0.005849      0.005815      0.003934
      1.59183      4.10143      2.51099         0.005849     -0.005815      0.003934
      3.08225     -0.00000      1.14210        -0.019077     -0.000000      0.002089
      0.06449     -2.86572      0.97424         0.021262      0.005682     -0.005323
      0.06449      2.86572      0.97424         0.021262     -0.005682     -0.005323
 -----------------------------------------------------------------------------------
    total drift:                                0.000154     -0.000000      0.000146


--------------------------------------------------------------------------------------------------------



  FREE ENERGIE OF THE ION-ELECTRON SYSTEM (eV)
  ---------------------------------------------------
  free  energy   TOTEN  =       -65.79060361 eV

  energy  without entropy=      -65.79060361  energy(sigma->0) =      -65.79060361
 


--------------------------------------------------------------------------------------------------------


    POTLOK:  cpu time      0.1681: real time      0.1681


--------------------------------------------------------------------------------------------------------


 writing wavefunctions
     LOOP+:  cpu time    790.8727: real time    790.9511
    4ORBIT:  cpu time      0.0000: real time      0.0000



 total charge

# of ion       s       p       d       tot
------------------------------------------
    1        1.600   3.505   0.000   5.105
    2        1.596   3.539   0.000   5.135
    3        1.603   3.445   0.000   5.048
    4        1.603   3.445   0.000   5.048
    5        1.602   3.435   0.000   5.037
    6        1.602   3.435   0.000   5.037
    7        2.408   6.543   3.097  12.047
    8        1.631   0.859  10.017  12.508
    9        1.631   0.859  10.017  12.508
--------------------------------------------------
tot         15.276  29.065  23.131  67.473
 

 total amount of memory used by VASP MPI-rank0  1282197. kBytes
=======================================================================

   base      :      30000. kBytes
   nonl-proj :     822472. kBytes
   fftplans  :      30360. kBytes
   grid      :      17337. kBytes
   one-center:        139. kBytes
   wavefun   :     381889. kBytes
 
  
  
 General timing and accounting informations for this job:
 ========================================================
  
                  Total CPU time used (sec):      799.266
                            User time (sec):      591.028
                          System time (sec):      208.238
                         Elapsed time (sec):      799.442
  
                   Maximum memory used (kb):     2719648.
                   Average memory used (kb):          N/A
  
                          Minor page faults:      1073481
                          Major page faults:            0
                 Voluntary context switches:        18187
