   9   9   1   0
  0.1394991E+02  0.8724042E-09  0.8724042E-09  0.3828023E-09  0.5000000E-15
   1.0000000000000000E-004
  CAR 
 unknown system                          
     15.93774983    -73.66349948 2001      5.27590117      1.00000000
    -73.663  0.0000E+00  0.0000E+00
    -73.619  0.0000E+00  0.0000E+00
    -73.574  0.0000E+00  0.0000E+00
    -73.529  0.0000E+00  0.0000E+00
    -73.484  0.0000E+00  0.0000E+00
    -73.439  0.0000E+00  0.0000E+00
    -73.395  0.0000E+00  0.0000E+00
    -73.350  0.0000E+00  0.0000E+00
    -73.305  0.0000E+00  0.0000E+00
    -73.260  0.0000E+00  0.0000E+00
    -73.215  0.0000E+00  0.0000E+00
    -73.171  0.0000E+00  0.0000E+00
    -73.126  0.0000E+00  0.0000E+00
    -73.081  0.0000E+00  0.0000E+00
    -73.036  0.0000E+00  0.0000E+00
    -72.991  0.0000E+00  0.0000E+00
    -72.947  0.0000E+00  0.0000E+00
    -72.902  0.0000E+00  0.0000E+00
    -72.857  0.0000E+00  0.0000E+00
    -72.812  0.0000E+00  0.0000E+00
    -72.767  0.0000E+00  0.0000E+00
    -72.723  0.0000E+00  0.0000E+00
    -72.678  0.0000E+00  0.0000E+00
    -72.633  0.0000E+00  0.0000E+00
    -72.588  0.0000E+00  0.0000E+00
    -72.543  0.0000E+00  0.0000E+00
    -72.499  0.0000E+00  0.0000E+00
    -72.454  0.0000E+00  0.0000E+00
    -72.409  0.0000E+00  0.0000E+00
    -72.364  0.0000E+00  0.0000E+00
    -72.319  0.0000E+00  0.0000E+00
    -72.275  0.0000E+00  0.0000E+00
    -72.230  0.0000E+00  0.0000E+00
    -72.185  0.0000E+00  0.0000E+00
    -72.140  0.0000E+00  0.0000E+00
    -72.095  0.0000E+00  0.0000E+00
    -72.051  0.0000E+00  0.0000E+00
    -72.006  0.0000E+00  0.0000E+00
    -71.961  0.0000E+00  0.0000E+00
    -71.916  0.0000E+00  0.0000E+00
    -71.871  0.0000E+00  0.0000E+00
    -71.827  0.0000E+00  0.0000E+00
    -71.782  0.0000E+00  0.0000E+00
    -71.737  0.0000E+00  0.0000E+00
    -71.692  0.0000E+00  0.0000E+00
    -71.647  0.0000E+00  0.0000E+00
    -71.603  0.0000E+00  0.0000E+00
    -71.558  0.0000E+00  0.0000E+00
    -71.513  0.0000E+00  0.0000E+00
    -71.468  0.0000E+00  0.0000E+00
    -71.423  0.0000E+00  0.0000E+00
    -71.379  0.0000E+00  0.0000E+00
    -71.334  0.0000E+00  0.0000E+00
    -71.289  0.0000E+00  0.0000E+00
    -71.244  0.0000E+00  0.0000E+00
    -71.199  0.0000E+00  0.0000E+00
    -71.155  0.0000E+00  0.0000E+00
    -71.110  0.0000E+00  0.0000E+00
    -71.065  0.0000E+00  0.0000E+00
    -71.020  0.0000E+00  0.0000E+00
    -70.975  0.0000E+00  0.0000E+00
    -70.931  0.0000E+00  0.0000E+00
    -70.886  0.0000E+00  0.0000E+00
    -70.841  0.0000E+00  0.0000E+00
    -70.796  0.0000E+00  0.0000E+00
    -70.751  0.0000E+00  0.0000E+00
    -70.707  0.0000E+00  0.0000E+00
    -70.662  0.0000E+00  0.0000E+00
    -70.617  0.0000E+00  0.0000E+00
    -70.572  0.0000E+00  0.0000E+00
    -70.527  0.0000E+00  0.0000E+00
    -70.483  0.0000E+00  0.0000E+00
    -70.438  0.0000E+00  0.0000E+00
    -70.393  0.0000E+00  0.0000E+00
    -70.348  0.0000E+00  0.0000E+00
    -70.303  0.0000E+00  0.0000E+00
    -70.259  0.0000E+00  0.0000E+00
    -70.214  0.0000E+00  0.0000E+00
    -70.169  0.0000E+00  0.0000E+00
    -70.124  0.0000E+00  0.0000E+00
    -70.079  0.0000E+00  0.0000E+00
    -70.035  0.0000E+00  0.0000E+00
    -69.990  0.0000E+00  0.0000E+00
    -69.945  0.0000E+00  0.0000E+00
    -69.900  0.0000E+00  0.0000E+00
    -69.855  0.1412E-11  0.6327E-13
    -69.811  0.1015E-07  0.4546E-09
    -69.766  0.1517E-04  0.6803E-06
    -69.721  0.4801E-02  0.2158E-03
    -69.676  0.3297E+00  0.1499E-01
    -69.631  0.5107E+01  0.2438E+00
    -69.587  0.1868E+02  0.1081E+01
    -69.542  0.1670E+02  0.1829E+01
    -69.497  0.3632E+01  0.1992E+01
    -69.452  0.1853E+00  0.2000E+01
    -69.407  0.2117E-02  0.2000E+01
    -69.363  0.5226E-05  0.2000E+01
    -69.318  0.2720E-08  0.2000E+01
    -69.273  0.2945E-12  0.2000E+01
    -69.228  0.0000E+00  0.2000E+01
    -69.183  0.0000E+00  0.2000E+01
    -69.139  0.0000E+00  0.2000E+01
    -69.094  0.0000E+00  0.2000E+01
    -69.049  0.0000E+00  0.2000E+01
    -69.004  0.0000E+00  0.2000E+01
    -68.959  0.0000E+00  0.2000E+01
    -68.915  0.0000E+00  0.2000E+01
    -68.870  0.0000E+00  0.2000E+01
    -68.825  0.0000E+00  0.2000E+01
    -68.780  0.0000E+00  0.2000E+01
    -68.735  0.0000E+00  0.2000E+01
    -68.691  0.0000E+00  0.2000E+01
    -68.646  0.0000E+00  0.2000E+01
    -68.601  0.0000E+00  0.2000E+01
    -68.556  0.0000E+00  0.2000E+01
    -68.511  0.0000E+00  0.2000E+01
    -68.467  0.0000E+00  0.2000E+01
    -68.422  0.0000E+00  0.2000E+01
    -68.377  0.0000E+00  0.2000E+01
    -68.332  0.0000E+00  0.2000E+01
    -68.287  0.0000E+00  0.2000E+01
    -68.243  0.0000E+00  0.2000E+01
    -68.198  0.0000E+00  0.2000E+01
    -68.153  0.0000E+00  0.2000E+01
    -68.108  0.0000E+00  0.2000E+01
    -68.063  0.0000E+00  0.2000E+01
    -68.019  0.0000E+00  0.2000E+01
    -67.974  0.0000E+00  0.2000E+01
    -67.929  0.0000E+00  0.2000E+01
    -67.884  0.0000E+00  0.2000E+01
    -67.839  0.0000E+00  0.2000E+01
    -67.795  0.0000E+00  0.2000E+01
    -67.750  0.0000E+00  0.2000E+01
    -67.705  0.0000E+00  0.2000E+01
    -67.660  0.0000E+00  0.2000E+01
    -67.615  0.0000E+00  0.2000E+01
    -67.571  0.0000E+00  0.2000E+01
    -67.526  0.0000E+00  0.2000E+01
    -67.481  0.0000E+00  0.2000E+01
    -67.436  0.0000E+00  0.2000E+01
    -67.391  0.0000E+00  0.2000E+01
    -67.347  0.0000E+00  0.2000E+01
    -67.302  0.0000E+00  0.2000E+01
    -67.257  0.0000E+00  0.2000E+01
    -67.212  0.0000E+00  0.2000E+01
    -67.167  0.0000E+00  0.2000E+01
    -67.123  0.0000E+00  0.2000E+01
    -67.078  0.0000E+00  0.2000E+01
    -67.033  0.0000E+00  0.2000E+01
    -66.988  0.0000E+00  0.2000E+01
    -66.943  0.0000E+00  0.2000E+01
    -66.899  0.0000E+00  0.2000E+01
    -66.854  0.0000E+00  0.2000E+01
    -66.809  0.0000E+00  0.2000E+01
    -66.764  0.0000E+00  0.2000E+01
    -66.719  0.0000E+00  0.2000E+01
    -66.675  0.0000E+00  0.2000E+01
    -66.630  0.0000E+00  0.2000E+01
    -66.585  0.0000E+00  0.2000E+01
    -66.540  0.0000E+00  0.2000E+01
    -66.495  0.0000E+00  0.2000E+01
    -66.451  0.0000E+00  0.2000E+01
    -66.406  0.0000E+00  0.2000E+01
    -66.361  0.0000E+00  0.2000E+01
    -66.316  0.0000E+00  0.2000E+01
    -66.271  0.0000E+00  0.2000E+01
    -66.227  0.0000E+00  0.2000E+01
    -66.182  0.0000E+00  0.2000E+01
    -66.137  0.0000E+00  0.2000E+01
    -66.092  0.0000E+00  0.2000E+01
    -66.047  0.0000E+00  0.2000E+01
    -66.003  0.0000E+00  0.2000E+01
    -65.958  0.0000E+00  0.2000E+01
    -65.913  0.0000E+00  0.2000E+01
    -65.868  0.0000E+00  0.2000E+01
    -65.823  0.0000E+00  0.2000E+01
    -65.779  0.0000E+00  0.2000E+01
    -65.734  0.0000E+00  0.2000E+01
    -65.689  0.0000E+00  0.2000E+01
    -65.644  0.0000E+00  0.2000E+01
    -65.599  0.0000E+00  0.2000E+01
    -65.555  0.0000E+00  0.2000E+01
    -65.510  0.0000E+00  0.2000E+01
    -65.465  0.0000E+00  0.2000E+01
    -65.420  0.0000E+00  0.2000E+01
    -65.375  0.0000E+00  0.2000E+01
    -65.331  0.0000E+00  0.2000E+01
    -65.286  0.0000E+00  0.2000E+01
    -65.241  0.0000E+00  0.2000E+01
    -65.196  0.0000E+00  0.2000E+01
    -65.151  0.0000E+00  0.2000E+01
    -65.107  0.0000E+00  0.2000E+01
    -65.062  0.0000E+00  0.2000E+01
    -65.017  0.0000E+00  0.2000E+01
    -64.972  0.0000E+00  0.2000E+01
    -64.927  0.0000E+00  0.2000E+01
    -64.883  0.0000E+00  0.2000E+01
    -64.838  0.0000E+00  0.2000E+01
    -64.793  0.0000E+00  0.2000E+01
    -64.748  0.0000E+00  0.2000E+01
    -64.703  0.0000E+00  0.2000E+01
    -64.659  0.0000E+00  0.2000E+01
    -64.614  0.0000E+00  0.2000E+01
    -64.569  0.0000E+00  0.2000E+01
    -64.524  0.0000E+00  0.2000E+01
    -64.479  0.0000E+00  0.2000E+01
    -64.435  0.0000E+00  0.2000E+01
    -64.390  0.0000E+00  0.2000E+01
    -64.345  0.0000E+00  0.2000E+01
    -64.300  0.0000E+00  0.2000E+01
    -64.255  0.0000E+00  0.2000E+01
    -64.211  0.0000E+00  0.2000E+01
    -64.166  0.0000E+00  0.2000E+01
    -64.121  0.0000E+00  0.2000E+01
    -64.076  0.0000E+00  0.2000E+01
    -64.031  0.0000E+00  0.2000E+01
    -63.987  0.0000E+00  0.2000E+01
    -63.942  0.0000E+00  0.2000E+01
    -63.897  0.0000E+00  0.2000E+01
    -63.852  0.0000E+00  0.2000E+01
    -63.807  0.0000E+00  0.2000E+01
    -63.763  0.0000E+00  0.2000E+01
    -63.718  0.0000E+00  0.2000E+01
    -63.673  0.0000E+00  0.2000E+01
    -63.628  0.0000E+00  0.2000E+01
    -63.583  0.0000E+00  0.2000E+01
    -63.539  0.0000E+00  0.2000E+01
    -63.494  0.0000E+00  0.2000E+01
    -63.449  0.0000E+00  0.2000E+01
    -63.404  0.0000E+00  0.2000E+01
    -63.359  0.0000E+00  0.2000E+01
    -63.315  0.0000E+00  0.2000E+01
    -63.270  0.0000E+00  0.2000E+01
    -63.225  0.0000E+00  0.2000E+01
    -63.180  0.0000E+00  0.2000E+01
    -63.135  0.0000E+00  0.2000E+01
    -63.091  0.0000E+00  0.2000E+01
    -63.046  0.0000E+00  0.2000E+01
    -63.001  0.0000E+00  0.2000E+01
    -62.956  0.0000E+00  0.2000E+01
    -62.911  0.0000E+00  0.2000E+01
    -62.867  0.0000E+00  0.2000E+01
    -62.822  0.0000E+00  0.2000E+01
    -62.777  0.0000E+00  0.2000E+01
    -62.732  0.0000E+00  0.2000E+01
    -62.687  0.0000E+00  0.2000E+01
    -62.643  0.0000E+00  0.2000E+01
    -62.598  0.0000E+00  0.2000E+01
    -62.553  0.0000E+00  0.2000E+01
    -62.508  0.0000E+00  0.2000E+01
    -62.463  0.0000E+00  0.2000E+01
    -62.419  0.0000E+00  0.2000E+01
    -62.374  0.0000E+00  0.2000E+01
    -62.329  0.0000E+00  0.2000E+01
    -62.284  0.0000E+00  0.2000E+01
    -62.239  0.0000E+00  0.2000E+01
    -62.195  0.0000E+00  0.2000E+01
    -62.150  0.0000E+00  0.2000E+01
    -62.105  0.0000E+00  0.2000E+01
    -62.060  0.0000E+00  0.2000E+01
    -62.015  0.0000E+00  0.2000E+01
    -61.971  0.0000E+00  0.2000E+01
    -61.926  0.0000E+00  0.2000E+01
    -61.881  0.0000E+00  0.2000E+01
    -61.836  0.0000E+00  0.2000E+01
    -61.791  0.0000E+00  0.2000E+01
    -61.747  0.0000E+00  0.2000E+01
    -61.702  0.0000E+00  0.2000E+01
    -61.657  0.0000E+00  0.2000E+01
    -61.612  0.0000E+00  0.2000E+01
    -61.567  0.0000E+00  0.2000E+01
    -61.523  0.0000E+00  0.2000E+01
    -61.478  0.0000E+00  0.2000E+01
    -61.433  0.0000E+00  0.2000E+01
    -61.388  0.0000E+00  0.2000E+01
    -61.343  0.0000E+00  0.2000E+01
    -61.299  0.0000E+00  0.2000E+01
    -61.254  0.0000E+00  0.2000E+01
    -61.209  0.0000E+00  0.2000E+01
    -61.164  0.0000E+00  0.2000E+01
    -61.119  0.0000E+00  0.2000E+01
    -61.075  0.0000E+00  0.2000E+01
    -61.030  0.0000E+00  0.2000E+01
    -60.985  0.0000E+00  0.2000E+01
    -60.940  0.0000E+00  0.2000E+01
    -60.895  0.0000E+00  0.2000E+01
    -60.851  0.0000E+00  0.2000E+01
    -60.806  0.0000E+00  0.2000E+01
    -60.761  0.0000E+00  0.2000E+01
    -60.716  0.0000E+00  0.2000E+01
    -60.671  0.0000E+00  0.2000E+01
    -60.627  0.0000E+00  0.2000E+01
    -60.582  0.0000E+00  0.2000E+01
    -60.537  0.0000E+00  0.2000E+01
    -60.492  0.0000E+00  0.2000E+01
    -60.447  0.0000E+00  0.2000E+01
    -60.403  0.0000E+00  0.2000E+01
    -60.358  0.0000E+00  0.2000E+01
    -60.313  0.0000E+00  0.2000E+01
    -60.268  0.0000E+00  0.2000E+01
    -60.223  0.0000E+00  0.2000E+01
    -60.179  0.0000E+00  0.2000E+01
    -60.134  0.0000E+00  0.2000E+01
    -60.089  0.0000E+00  0.2000E+01
    -60.044  0.0000E+00  0.2000E+01
    -59.999  0.0000E+00  0.2000E+01
    -59.955  0.0000E+00  0.2000E+01
    -59.910  0.0000E+00  0.2000E+01
    -59.865  0.0000E+00  0.2000E+01
    -59.820  0.0000E+00  0.2000E+01
    -59.775  0.0000E+00  0.2000E+01
    -59.731  0.0000E+00  0.2000E+01
    -59.686  0.0000E+00  0.2000E+01
    -59.641  0.0000E+00  0.2000E+01
    -59.596  0.0000E+00  0.2000E+01
    -59.551  0.0000E+00  0.2000E+01
    -59.507  0.0000E+00  0.2000E+01
    -59.462  0.0000E+00  0.2000E+01
    -59.417  0.0000E+00  0.2000E+01
    -59.372  0.0000E+00  0.2000E+01
    -59.327  0.0000E+00  0.2000E+01
    -59.282  0.0000E+00  0.2000E+01
    -59.238  0.0000E+00  0.2000E+01
    -59.193  0.0000E+00  0.2000E+01
    -59.148  0.0000E+00  0.2000E+01
    -59.103  0.0000E+00  0.2000E+01
    -59.058  0.0000E+00  0.2000E+01
    -59.014  0.0000E+00  0.2000E+01
    -58.969  0.0000E+00  0.2000E+01
    -58.924  0.0000E+00  0.2000E+01
    -58.879  0.0000E+00  0.2000E+01
    -58.834  0.0000E+00  0.2000E+01
    -58.790  0.0000E+00  0.2000E+01
    -58.745  0.0000E+00  0.2000E+01
    -58.700  0.0000E+00  0.2000E+01
    -58.655  0.0000E+00  0.2000E+01
    -58.610  0.0000E+00  0.2000E+01
    -58.566  0.0000E+00  0.2000E+01
    -58.521  0.0000E+00  0.2000E+01
    -58.476  0.0000E+00  0.2000E+01
    -58.431  0.0000E+00  0.2000E+01
    -58.386  0.0000E+00  0.2000E+01
    -58.342  0.0000E+00  0.2000E+01
    -58.297  0.0000E+00  0.2000E+01
    -58.252  0.0000E+00  0.2000E+01
    -58.207  0.0000E+00  0.2000E+01
    -58.162  0.0000E+00  0.2000E+01
    -58.118  0.0000E+00  0.2000E+01
    -58.073  0.0000E+00  0.2000E+01
    -58.028  0.0000E+00  0.2000E+01
    -57.983  0.0000E+00  0.2000E+01
    -57.938  0.0000E+00  0.2000E+01
    -57.894  0.0000E+00  0.2000E+01
    -57.849  0.0000E+00  0.2000E+01
    -57.804  0.0000E+00  0.2000E+01
    -57.759  0.0000E+00  0.2000E+01
    -57.714  0.0000E+00  0.2000E+01
    -57.670  0.0000E+00  0.2000E+01
    -57.625  0.0000E+00  0.2000E+01
    -57.580  0.0000E+00  0.2000E+01
    -57.535  0.0000E+00  0.2000E+01
    -57.490  0.0000E+00  0.2000E+01
    -57.446  0.0000E+00  0.2000E+01
    -57.401  0.0000E+00  0.2000E+01
    -57.356  0.0000E+00  0.2000E+01
    -57.311  0.0000E+00  0.2000E+01
    -57.266  0.0000E+00  0.2000E+01
    -57.222  0.0000E+00  0.2000E+01
    -57.177  0.0000E+00  0.2000E+01
    -57.132  0.0000E+00  0.2000E+01
    -57.087  0.0000E+00  0.2000E+01
    -57.042  0.0000E+00  0.2000E+01
    -56.998  0.0000E+00  0.2000E+01
    -56.953  0.0000E+00  0.2000E+01
    -56.908  0.0000E+00  0.2000E+01
    -56.863  0.0000E+00  0.2000E+01
    -56.818  0.0000E+00  0.2000E+01
    -56.774  0.0000E+00  0.2000E+01
    -56.729  0.0000E+00  0.2000E+01
    -56.684  0.0000E+00  0.2000E+01
    -56.639  0.0000E+00  0.2000E+01
    -56.594  0.0000E+00  0.2000E+01
    -56.550  0.0000E+00  0.2000E+01
    -56.505  0.0000E+00  0.2000E+01
    -56.460  0.0000E+00  0.2000E+01
    -56.415  0.0000E+00  0.2000E+01
    -56.370  0.0000E+00  0.2000E+01
    -56.326  0.0000E+00  0.2000E+01
    -56.281  0.0000E+00  0.2000E+01
    -56.236  0.0000E+00  0.2000E+01
    -56.191  0.0000E+00  0.2000E+01
    -56.146  0.0000E+00  0.2000E+01
    -56.102  0.0000E+00  0.2000E+01
    -56.057  0.0000E+00  0.2000E+01
    -56.012  0.0000E+00  0.2000E+01
    -55.967  0.0000E+00  0.2000E+01
    -55.922  0.0000E+00  0.2000E+01
    -55.878  0.0000E+00  0.2000E+01
    -55.833  0.0000E+00  0.2000E+01
    -55.788  0.0000E+00  0.2000E+01
    -55.743  0.0000E+00  0.2000E+01
    -55.698  0.0000E+00  0.2000E+01
    -55.654  0.0000E+00  0.2000E+01
    -55.609  0.0000E+00  0.2000E+01
    -55.564  0.0000E+00  0.2000E+01
    -55.519  0.0000E+00  0.2000E+01
    -55.474  0.0000E+00  0.2000E+01
    -55.430  0.0000E+00  0.2000E+01
    -55.385  0.0000E+00  0.2000E+01
    -55.340  0.0000E+00  0.2000E+01
    -55.295  0.0000E+00  0.2000E+01
    -55.250  0.0000E+00  0.2000E+01
    -55.206  0.0000E+00  0.2000E+01
    -55.161  0.0000E+00  0.2000E+01
    -55.116  0.0000E+00  0.2000E+01
    -55.071  0.0000E+00  0.2000E+01
    -55.026  0.0000E+00  0.2000E+01
    -54.982  0.0000E+00  0.2000E+01
    -54.937  0.0000E+00  0.2000E+01
    -54.892  0.0000E+00  0.2000E+01
    -54.847  0.0000E+00  0.2000E+01
    -54.802  0.0000E+00  0.2000E+01
    -54.758  0.0000E+00  0.2000E+01
    -54.713  0.0000E+00  0.2000E+01
    -54.668  0.0000E+00  0.2000E+01
    -54.623  0.0000E+00  0.2000E+01
    -54.578  0.0000E+00  0.2000E+01
    -54.534  0.0000E+00  0.2000E+01
    -54.489  0.0000E+00  0.2000E+01
    -54.444  0.0000E+00  0.2000E+01
    -54.399  0.0000E+00  0.2000E+01
    -54.354  0.0000E+00  0.2000E+01
    -54.310  0.0000E+00  0.2000E+01
    -54.265  0.0000E+00  0.2000E+01
    -54.220  0.0000E+00  0.2000E+01
    -54.175  0.0000E+00  0.2000E+01
    -54.130  0.0000E+00  0.2000E+01
    -54.086  0.0000E+00  0.2000E+01
    -54.041  0.0000E+00  0.2000E+01
    -53.996  0.0000E+00  0.2000E+01
    -53.951  0.0000E+00  0.2000E+01
    -53.906  0.0000E+00  0.2000E+01
    -53.862  0.0000E+00  0.2000E+01
    -53.817  0.0000E+00  0.2000E+01
    -53.772  0.0000E+00  0.2000E+01
    -53.727  0.0000E+00  0.2000E+01
    -53.682  0.0000E+00  0.2000E+01
    -53.638  0.0000E+00  0.2000E+01
    -53.593  0.0000E+00  0.2000E+01
    -53.548  0.0000E+00  0.2000E+01
    -53.503  0.0000E+00  0.2000E+01
    -53.458  0.0000E+00  0.2000E+01
    -53.414  0.0000E+00  0.2000E+01
    -53.369  0.0000E+00  0.2000E+01
    -53.324  0.0000E+00  0.2000E+01
    -53.279  0.0000E+00  0.2000E+01
    -53.234  0.0000E+00  0.2000E+01
    -53.190  0.0000E+00  0.2000E+01
    -53.145  0.0000E+00  0.2000E+01
    -53.100  0.0000E+00  0.2000E+01
    -53.055  0.0000E+00  0.2000E+01
    -53.010  0.0000E+00  0.2000E+01
    -52.966  0.0000E+00  0.2000E+01
    -52.921  0.0000E+00  0.2000E+01
    -52.876  0.0000E+00  0.2000E+01
    -52.831  0.0000E+00  0.2000E+01
    -52.786  0.0000E+00  0.2000E+01
    -52.742  0.0000E+00  0.2000E+01
    -52.697  0.0000E+00  0.2000E+01
    -52.652  0.0000E+00  0.2000E+01
    -52.607  0.0000E+00  0.2000E+01
    -52.562  0.0000E+00  0.2000E+01
    -52.518  0.0000E+00  0.2000E+01
    -52.473  0.0000E+00  0.2000E+01
    -52.428  0.0000E+00  0.2000E+01
    -52.383  0.0000E+00  0.2000E+01
    -52.338  0.0000E+00  0.2000E+01
    -52.294  0.0000E+00  0.2000E+01
    -52.249  0.0000E+00  0.2000E+01
    -52.204  0.0000E+00  0.2000E+01
    -52.159  0.0000E+00  0.2000E+01
    -52.114  0.0000E+00  0.2000E+01
    -52.070  0.0000E+00  0.2000E+01
    -52.025  0.0000E+00  0.2000E+01
    -51.980  0.0000E+00  0.2000E+01
    -51.935  0.0000E+00  0.2000E+01
    -51.890  0.0000E+00  0.2000E+01
    -51.846  0.0000E+00  0.2000E+01
    -51.801  0.0000E+00  0.2000E+01
    -51.756  0.0000E+00  0.2000E+01
    -51.711  0.0000E+00  0.2000E+01
    -51.666  0.0000E+00  0.2000E+01
    -51.622  0.0000E+00  0.2000E+01
    -51.577  0.0000E+00  0.2000E+01
    -51.532  0.0000E+00  0.2000E+01
    -51.487  0.0000E+00  0.2000E+01
    -51.442  0.0000E+00  0.2000E+01
    -51.398  0.0000E+00  0.2000E+01
    -51.353  0.0000E+00  0.2000E+01
    -51.308  0.0000E+00  0.2000E+01
    -51.263  0.0000E+00  0.2000E+01
    -51.218  0.0000E+00  0.2000E+01
    -51.174  0.0000E+00  0.2000E+01
    -51.129  0.0000E+00  0.2000E+01
    -51.084  0.0000E+00  0.2000E+01
    -51.039  0.0000E+00  0.2000E+01
    -50.994  0.0000E+00  0.2000E+01
    -50.950  0.0000E+00  0.2000E+01
    -50.905  0.0000E+00  0.2000E+01
    -50.860  0.0000E+00  0.2000E+01
    -50.815  0.0000E+00  0.2000E+01
    -50.770  0.0000E+00  0.2000E+01
    -50.726  0.0000E+00  0.2000E+01
    -50.681  0.0000E+00  0.2000E+01
    -50.636  0.0000E+00  0.2000E+01
    -50.591  0.0000E+00  0.2000E+01
    -50.546  0.0000E+00  0.2000E+01
    -50.502  0.0000E+00  0.2000E+01
    -50.457  0.0000E+00  0.2000E+01
    -50.412  0.0000E+00  0.2000E+01
    -50.367  0.0000E+00  0.2000E+01
    -50.322  0.0000E+00  0.2000E+01
    -50.278  0.0000E+00  0.2000E+01
    -50.233  0.0000E+00  0.2000E+01
    -50.188  0.0000E+00  0.2000E+01
    -50.143  0.0000E+00  0.2000E+01
    -50.098  0.0000E+00  0.2000E+01
    -50.054  0.0000E+00  0.2000E+01
    -50.009  0.0000E+00  0.2000E+01
    -49.964  0.0000E+00  0.2000E+01
    -49.919  0.0000E+00  0.2000E+01
    -49.874  0.0000E+00  0.2000E+01
    -49.830  0.0000E+00  0.2000E+01
    -49.785  0.0000E+00  0.2000E+01
    -49.740  0.0000E+00  0.2000E+01
    -49.695  0.0000E+00  0.2000E+01
    -49.650  0.0000E+00  0.2000E+01
    -49.606  0.0000E+00  0.2000E+01
    -49.561  0.0000E+00  0.2000E+01
    -49.516  0.0000E+00  0.2000E+01
    -49.471  0.0000E+00  0.2000E+01
    -49.426  0.0000E+00  0.2000E+01
    -49.382  0.0000E+00  0.2000E+01
    -49.337  0.0000E+00  0.2000E+01
    -49.292  0.0000E+00  0.2000E+01
    -49.247  0.0000E+00  0.2000E+01
    -49.202  0.0000E+00  0.2000E+01
    -49.158  0.0000E+00  0.2000E+01
    -49.113  0.0000E+00  0.2000E+01
    -49.068  0.0000E+00  0.2000E+01
    -49.023  0.0000E+00  0.2000E+01
    -48.978  0.0000E+00  0.2000E+01
    -48.934  0.0000E+00  0.2000E+01
    -48.889  0.0000E+00  0.2000E+01
    -48.844  0.0000E+00  0.2000E+01
    -48.799  0.0000E+00  0.2000E+01
    -48.754  0.0000E+00  0.2000E+01
    -48.710  0.0000E+00  0.2000E+01
    -48.665  0.0000E+00  0.2000E+01
    -48.620  0.0000E+00  0.2000E+01
    -48.575  0.0000E+00  0.2000E+01
    -48.530  0.0000E+00  0.2000E+01
    -48.486  0.0000E+00  0.2000E+01
    -48.441  0.0000E+00  0.2000E+01
    -48.396  0.0000E+00  0.2000E+01
    -48.351  0.0000E+00  0.2000E+01
    -48.306  0.0000E+00  0.2000E+01
    -48.262  0.0000E+00  0.2000E+01
    -48.217  0.0000E+00  0.2000E+01
    -48.172  0.0000E+00  0.2000E+01
    -48.127  0.0000E+00  0.2000E+01
    -48.082  0.0000E+00  0.2000E+01
    -48.038  0.0000E+00  0.2000E+01
    -47.993  0.0000E+00  0.2000E+01
    -47.948  0.0000E+00  0.2000E+01
    -47.903  0.0000E+00  0.2000E+01
    -47.858  0.0000E+00  0.2000E+01
    -47.814  0.0000E+00  0.2000E+01
    -47.769  0.0000E+00  0.2000E+01
    -47.724  0.0000E+00  0.2000E+01
    -47.679  0.0000E+00  0.2000E+01
    -47.634  0.0000E+00  0.2000E+01
    -47.590  0.0000E+00  0.2000E+01
    -47.545  0.0000E+00  0.2000E+01
    -47.500  0.0000E+00  0.2000E+01
    -47.455  0.0000E+00  0.2000E+01
    -47.410  0.0000E+00  0.2000E+01
    -47.366  0.0000E+00  0.2000E+01
    -47.321  0.0000E+00  0.2000E+01
    -47.276  0.0000E+00  0.2000E+01
    -47.231  0.0000E+00  0.2000E+01
    -47.186  0.0000E+00  0.2000E+01
    -47.142  0.0000E+00  0.2000E+01
    -47.097  0.0000E+00  0.2000E+01
    -47.052  0.0000E+00  0.2000E+01
    -47.007  0.0000E+00  0.2000E+01
    -46.962  0.0000E+00  0.2000E+01
    -46.918  0.0000E+00  0.2000E+01
    -46.873  0.0000E+00  0.2000E+01
    -46.828  0.0000E+00  0.2000E+01
    -46.783  0.0000E+00  0.2000E+01
    -46.738  0.0000E+00  0.2000E+01
    -46.694  0.0000E+00  0.2000E+01
    -46.649  0.0000E+00  0.2000E+01
    -46.604  0.0000E+00  0.2000E+01
    -46.559  0.0000E+00  0.2000E+01
    -46.514  0.0000E+00  0.2000E+01
    -46.470  0.0000E+00  0.2000E+01
    -46.425  0.0000E+00  0.2000E+01
    -46.380  0.0000E+00  0.2000E+01
    -46.335  0.0000E+00  0.2000E+01
    -46.290  0.0000E+00  0.2000E+01
    -46.246  0.0000E+00  0.2000E+01
    -46.201  0.0000E+00  0.2000E+01
    -46.156  0.0000E+00  0.2000E+01
    -46.111  0.0000E+00  0.2000E+01
    -46.066  0.0000E+00  0.2000E+01
    -46.022  0.0000E+00  0.2000E+01
    -45.977  0.0000E+00  0.2000E+01
    -45.932  0.0000E+00  0.2000E+01
    -45.887  0.0000E+00  0.2000E+01
    -45.842  0.0000E+00  0.2000E+01
    -45.798  0.0000E+00  0.2000E+01
    -45.753  0.0000E+00  0.2000E+01
    -45.708  0.0000E+00  0.2000E+01
    -45.663  0.0000E+00  0.2000E+01
    -45.618  0.0000E+00  0.2000E+01
    -45.574  0.0000E+00  0.2000E+01
    -45.529  0.0000E+00  0.2000E+01
    -45.484  0.0000E+00  0.2000E+01
    -45.439  0.0000E+00  0.2000E+01
    -45.394  0.0000E+00  0.2000E+01
    -45.350  0.0000E+00  0.2000E+01
    -45.305  0.0000E+00  0.2000E+01
    -45.260  0.0000E+00  0.2000E+01
    -45.215  0.0000E+00  0.2000E+01
    -45.170  0.0000E+00  0.2000E+01
    -45.126  0.0000E+00  0.2000E+01
    -45.081  0.0000E+00  0.2000E+01
    -45.036  0.0000E+00  0.2000E+01
    -44.991  0.0000E+00  0.2000E+01
    -44.946  0.0000E+00  0.2000E+01
    -44.901  0.0000E+00  0.2000E+01
    -44.857  0.0000E+00  0.2000E+01
    -44.812  0.0000E+00  0.2000E+01
    -44.767  0.0000E+00  0.2000E+01
    -44.722  0.0000E+00  0.2000E+01
    -44.677  0.0000E+00  0.2000E+01
    -44.633  0.0000E+00  0.2000E+01
    -44.588  0.0000E+00  0.2000E+01
    -44.543  0.0000E+00  0.2000E+01
    -44.498  0.0000E+00  0.2000E+01
    -44.453  0.0000E+00  0.2000E+01
    -44.409  0.0000E+00  0.2000E+01
    -44.364  0.0000E+00  0.2000E+01
    -44.319  0.0000E+00  0.2000E+01
    -44.274  0.0000E+00  0.2000E+01
    -44.229  0.0000E+00  0.2000E+01
    -44.185  0.0000E+00  0.2000E+01
    -44.140  0.0000E+00  0.2000E+01
    -44.095  0.0000E+00  0.2000E+01
    -44.050  0.0000E+00  0.2000E+01
    -44.005  0.0000E+00  0.2000E+01
    -43.961  0.0000E+00  0.2000E+01
    -43.916  0.0000E+00  0.2000E+01
    -43.871  0.0000E+00  0.2000E+01
    -43.826  0.0000E+00  0.2000E+01
    -43.781  0.0000E+00  0.2000E+01
    -43.737  0.0000E+00  0.2000E+01
    -43.692  0.0000E+00  0.2000E+01
    -43.647  0.0000E+00  0.2000E+01
    -43.602  0.0000E+00  0.2000E+01
    -43.557  0.0000E+00  0.2000E+01
    -43.513  0.0000E+00  0.2000E+01
    -43.468  0.0000E+00  0.2000E+01
    -43.423  0.0000E+00  0.2000E+01
    -43.378  0.0000E+00  0.2000E+01
    -43.333  0.0000E+00  0.2000E+01
    -43.289  0.0000E+00  0.2000E+01
    -43.244  0.0000E+00  0.2000E+01
    -43.199  0.0000E+00  0.2000E+01
    -43.154  0.0000E+00  0.2000E+01
    -43.109  0.0000E+00  0.2000E+01
    -43.065  0.0000E+00  0.2000E+01
    -43.020  0.0000E+00  0.2000E+01
    -42.975  0.0000E+00  0.2000E+01
    -42.930  0.0000E+00  0.2000E+01
    -42.885  0.0000E+00  0.2000E+01
    -42.841  0.0000E+00  0.2000E+01
    -42.796  0.0000E+00  0.2000E+01
    -42.751  0.0000E+00  0.2000E+01
    -42.706  0.0000E+00  0.2000E+01
    -42.661  0.0000E+00  0.2000E+01
    -42.617  0.0000E+00  0.2000E+01
    -42.572  0.0000E+00  0.2000E+01
    -42.527  0.0000E+00  0.2000E+01
    -42.482  0.0000E+00  0.2000E+01
    -42.437  0.0000E+00  0.2000E+01
    -42.393  0.0000E+00  0.2000E+01
    -42.348  0.0000E+00  0.2000E+01
    -42.303  0.0000E+00  0.2000E+01
    -42.258  0.0000E+00  0.2000E+01
    -42.213  0.0000E+00  0.2000E+01
    -42.169  0.0000E+00  0.2000E+01
    -42.124  0.0000E+00  0.2000E+01
    -42.079  0.0000E+00  0.2000E+01
    -42.034  0.0000E+00  0.2000E+01
    -41.989  0.0000E+00  0.2000E+01
    -41.945  0.0000E+00  0.2000E+01
    -41.900  0.0000E+00  0.2000E+01
    -41.855  0.0000E+00  0.2000E+01
    -41.810  0.0000E+00  0.2000E+01
    -41.765  0.0000E+00  0.2000E+01
    -41.721  0.0000E+00  0.2000E+01
    -41.676  0.0000E+00  0.2000E+01
    -41.631  0.0000E+00  0.2000E+01
    -41.586  0.0000E+00  0.2000E+01
    -41.541  0.0000E+00  0.2000E+01
    -41.497  0.0000E+00  0.2000E+01
    -41.452  0.0000E+00  0.2000E+01
    -41.407  0.0000E+00  0.2000E+01
    -41.362  0.0000E+00  0.2000E+01
    -41.317  0.0000E+00  0.2000E+01
    -41.273  0.0000E+00  0.2000E+01
    -41.228  0.0000E+00  0.2000E+01
    -41.183  0.0000E+00  0.2000E+01
    -41.138  0.0000E+00  0.2000E+01
    -41.093  0.0000E+00  0.2000E+01
    -41.049  0.0000E+00  0.2000E+01
    -41.004  0.0000E+00  0.2000E+01
    -40.959  0.0000E+00  0.2000E+01
    -40.914  0.0000E+00  0.2000E+01
    -40.869  0.0000E+00  0.2000E+01
    -40.825  0.0000E+00  0.2000E+01
    -40.780  0.0000E+00  0.2000E+01
    -40.735  0.0000E+00  0.2000E+01
    -40.690  0.0000E+00  0.2000E+01
    -40.645  0.0000E+00  0.2000E+01
    -40.601  0.0000E+00  0.2000E+01
    -40.556  0.0000E+00  0.2000E+01
    -40.511  0.0000E+00  0.2000E+01
    -40.466  0.0000E+00  0.2000E+01
    -40.421  0.0000E+00  0.2000E+01
    -40.377  0.0000E+00  0.2000E+01
    -40.332  0.0000E+00  0.2000E+01
    -40.287  0.0000E+00  0.2000E+01
    -40.242  0.0000E+00  0.2000E+01
    -40.197  0.0000E+00  0.2000E+01
    -40.153  0.0000E+00  0.2000E+01
    -40.108  0.0000E+00  0.2000E+01
    -40.063  0.0000E+00  0.2000E+01
    -40.018  0.0000E+00  0.2000E+01
    -39.973  0.0000E+00  0.2000E+01
    -39.929  0.0000E+00  0.2000E+01
    -39.884  0.0000E+00  0.2000E+01
    -39.839  0.0000E+00  0.2000E+01
    -39.794  0.0000E+00  0.2000E+01
    -39.749  0.0000E+00  0.2000E+01
    -39.705  0.0000E+00  0.2000E+01
    -39.660  0.0000E+00  0.2000E+01
    -39.615  0.0000E+00  0.2000E+01
    -39.570  0.0000E+00  0.2000E+01
    -39.525  0.0000E+00  0.2000E+01
    -39.481  0.0000E+00  0.2000E+01
    -39.436  0.0000E+00  0.2000E+01
    -39.391  0.0000E+00  0.2000E+01
    -39.346  0.0000E+00  0.2000E+01
    -39.301  0.0000E+00  0.2000E+01
    -39.257  0.0000E+00  0.2000E+01
    -39.212  0.0000E+00  0.2000E+01
    -39.167  0.0000E+00  0.2000E+01
    -39.122  0.0000E+00  0.2000E+01
    -39.077  0.0000E+00  0.2000E+01
    -39.033  0.0000E+00  0.2000E+01
    -38.988  0.0000E+00  0.2000E+01
    -38.943  0.0000E+00  0.2000E+01
    -38.898  0.0000E+00  0.2000E+01
    -38.853  0.0000E+00  0.2000E+01
    -38.809  0.0000E+00  0.2000E+01
    -38.764  0.0000E+00  0.2000E+01
    -38.719  0.0000E+00  0.2000E+01
    -38.674  0.0000E+00  0.2000E+01
    -38.629  0.0000E+00  0.2000E+01
    -38.585  0.0000E+00  0.2000E+01
    -38.540  0.0000E+00  0.2000E+01
    -38.495  0.0000E+00  0.2000E+01
    -38.450  0.0000E+00  0.2000E+01
    -38.405  0.0000E+00  0.2000E+01
    -38.361  0.0000E+00  0.2000E+01
    -38.316  0.0000E+00  0.2000E+01
    -38.271  0.0000E+00  0.2000E+01
    -38.226  0.0000E+00  0.2000E+01
    -38.181  0.0000E+00  0.2000E+01
    -38.137  0.0000E+00  0.2000E+01
    -38.092  0.0000E+00  0.2000E+01
    -38.047  0.0000E+00  0.2000E+01
    -38.002  0.0000E+00  0.2000E+01
    -37.957  0.0000E+00  0.2000E+01
    -37.913  0.0000E+00  0.2000E+01
    -37.868  0.0000E+00  0.2000E+01
    -37.823  0.0000E+00  0.2000E+01
    -37.778  0.0000E+00  0.2000E+01
    -37.733  0.0000E+00  0.2000E+01
    -37.689  0.0000E+00  0.2000E+01
    -37.644  0.0000E+00  0.2000E+01
    -37.599  0.0000E+00  0.2000E+01
    -37.554  0.0000E+00  0.2000E+01
    -37.509  0.0000E+00  0.2000E+01
    -37.465  0.0000E+00  0.2000E+01
    -37.420  0.0000E+00  0.2000E+01
    -37.375  0.0000E+00  0.2000E+01
    -37.330  0.0000E+00  0.2000E+01
    -37.285  0.0000E+00  0.2000E+01
    -37.241  0.0000E+00  0.2000E+01
    -37.196  0.0000E+00  0.2000E+01
    -37.151  0.0000E+00  0.2000E+01
    -37.106  0.0000E+00  0.2000E+01
    -37.061  0.0000E+00  0.2000E+01
    -37.017  0.0000E+00  0.2000E+01
    -36.972  0.0000E+00  0.2000E+01
    -36.927  0.0000E+00  0.2000E+01
    -36.882  0.0000E+00  0.2000E+01
    -36.837  0.0000E+00  0.2000E+01
    -36.793  0.0000E+00  0.2000E+01
    -36.748  0.0000E+00  0.2000E+01
    -36.703  0.0000E+00  0.2000E+01