       N       E                     dE             d eps       ncg     rms          rms(c)
DAV:   1     0.955769890831E+03    0.95577E+03   -0.36865E+04 14040   0.171E+03
DAV:   2     0.677865498719E+02   -0.88798E+03   -0.85890E+03 14480   0.525E+02
DAV:   3    -0.586146488314E+02   -0.12640E+03   -0.11877E+03 16592   0.198E+02
DAV:   4    -0.652256843175E+02   -0.66110E+01   -0.65232E+01 15440   0.471E+01
DAV:   5    -0.655230531154E+02   -0.29737E+00   -0.29671E+00 18448   0.991E+00
DAV:   6    -0.655292056038E+02   -0.61525E-02   -0.61456E-02 17552   0.135E+00
DAV:   7    -0.655293768100E+02   -0.17121E-03   -0.17117E-03 18672   0.205E-01
DAV:   8    -0.655293799534E+02   -0.31434E-05   -0.31430E-05 18216   0.272E-02
DAV:   9    -0.655293800343E+02   -0.80940E-07   -0.80737E-07 19104   0.376E-03
DAV:  10    -0.655293800362E+02   -0.18699E-08   -0.20783E-08 10696   0.598E-04
   1 F= -.65529380E+02 E0= -.65529380E+02  d E =-.437750E-13
