 vasp.6.4.2 20Jul23 (build Jun 26 2024 13:15:30) complex                         
 executed on              LinuxNV date 2025.04.15  17:58:33
 running    4 mpi-ranks, with    1 threads/rank, on    1 nodes
 distrk:  each k-point on    4 cores,    1 groups
 distr:  one band on NCORE=   1 cores,    4 groups
 OpenACC runtime initialized ...    4 GPUs detected


--------------------------------------------------------------------------------------------------------


 INCAR:
   ISTART = 1            (Read existing wavefunction, if there)
   ISPIN = 1            (Non-Spin polarised DFT)
   ICHARG = 11         (Non-self-consistent: GGA/LDA band structures)
   LREAL = .FALSE.       (Projection operators: automatic)
   LWAVE = .TRUE.        (Write WAVECAR or not)
   LCHARG = .TRUE.        (Write CHGCAR or not)
   ADDGRID = .TRUE.        (Increase grid, helps GGA convergence)
   LASPH = .TRUE.        (Give more accurate total energies and band structure calculations)
   PREC = Accurate      (Accurate strictly avoids any aliasing or wrap around errors)
   ISMEAR = 0            (gaussian smearing method)
   SIGMA = 0.05         (please check the width of the smearing)
   LORBIT = 11           (PAW radii for projected DOS)
   NEDOS = 2001         (DOSCAR points)
   NELM = 60           (Max electronic SCF steps)
   EDIFF = 1E-08        (SCF energy convergence, in eV)

 POTCAR:    PAW_PBE O 08Apr2002                   
 POTCAR:    PAW_PBE W_sv 04Sep2015                
 POTCAR:    PAW_PBE Bi_d 06Sep2000                
 POTCAR:    PAW_PBE O 08Apr2002                   
   VRHFIN =O: s2p4                                                                                  
   LEXCH  = PE                                                                                      
   EATOM  =   432.3788 eV,   31.7789 Ry                                                             
                                                                                                    
   TITEL  = PAW_PBE O 08Apr2002                                                                     
   LULTRA =        F    use ultrasoft PP ?                                                          
   IUNSCR =        1    unscreen: 0-lin 1-nonlin 2-no                                               
   RPACOR =    1.200    partial core radius                                                         
   POMASS =   16.000; ZVAL   =    6.000    mass and valenz                                          
   RCORE  =    1.520    outmost cutoff radius                                                       
   RWIGS  =    1.550; RWIGS  =    0.820    wigner-seitz radius (au A)                               
   ENMAX  =  400.000; ENMIN  =  300.000 eV                                                          
   ICORE  =        2    local potential                                                             
   LCOR   =        T    correct aug charges                                                         
   LPAW   =        T    paw PP                                                                      
   EAUG   =  605.392                                                                                
   DEXC   =    0.000                                                                                
   RMAX   =    1.553    core radius for proj-oper                                                   
   RAUG   =    1.300    factor for augmentation sphere                                              
   RDEP   =    1.550    radius for radial grids                                                     
   RDEPT  =    1.329    core radius for aug-charge                                                  
                                                                                                    
   Atomic configuration                                                                             
    4 entries                                                                                       
     n  l   j            E        occ.                                                              
     1  0  0.50      -514.6923   2.0000                                                             
     2  0  0.50       -23.9615   2.0000                                                             
     2  1  0.50        -9.0305   4.0000                                                             
     3  2  1.50        -9.5241   0.0000                                                             
   Description                                                                                      
     l       E           TYP  RCUT    TYP  RCUT                                                     
     0    -23.9615318     23  1.200                                                                 
     0     -9.5240782     23  1.200                                                                 
     1     -9.0304911     23  1.520                                                                 
     1      8.1634956     23  1.520                                                                 
     2     -9.5240782      7  1.500                                                                 
  local pseudopotential read in
  partial core-charges read in
  partial kinetic energy density read in
  kinetic energy density of atom read in
  atomic valenz-charges read in
  non local Contribution for L=            0  read in
    real space projection operators read in
  non local Contribution for L=            0  read in
    real space projection operators read in
  non local Contribution for L=            1  read in
    real space projection operators read in
  non local Contribution for L=            1  read in
    real space projection operators read in
    PAW grid and wavefunctions read in
 
   number of l-projection  operators is LMAX  =            4
   number of lm-projection operators is LMMAX =            8
 
 POTCAR:    PAW_PBE W_sv 04Sep2015                
   VRHFIN =W : 5p6s5d                                                                               
   LEXCH  = PE                                                                                      
   EATOM  =  1865.5791 eV,  137.1162 Ry                                                             
                                                                                                    
   TITEL  = PAW_PBE W_sv 04Sep2015                                                                  
   LULTRA =        F    use ultrasoft PP ?                                                          
   IUNSCR =        1    unscreen: 0-lin 1-nonlin 2-no                                               
   RPACOR =    2.330    partial core radius                                                         
   POMASS =  183.850; ZVAL   =   14.000    mass and valenz                                          
   RCORE  =    2.500    outmost cutoff radius                                                       
   RWIGS  =    2.750; RWIGS  =    1.455    wigner-seitz radius (au A)                               
   ENMAX  =  223.057; ENMIN  =  167.293 eV                                                          
   ICORE  =        3    local potential                                                             
   LCOR   =        T    correct aug charges                                                         
   LPAW   =        T    paw PP                                                                      
   EAUG   =  373.438                                                                                
   DEXC   =    0.000                                                                                
   RMAX   =    2.565    core radius for proj-oper                                                   
   RAUG   =    1.300    factor for augmentation sphere                                              
   RDEP   =    2.539    radius for radial grids                                                     
   RDEPT  =    2.126    core radius for aug-charge                                                  
                                                                                                    
   Atomic configuration                                                                             
   15 entries                                                                                       
     n  l   j            E        occ.                                                              
     1  0  0.50    -69465.5834   2.0000                                                             
     2  0  0.50    -11986.2640   2.0000                                                             
     2  1  1.50    -10479.8613   6.0000                                                             
     3  0  0.50     -2759.0756   2.0000                                                             
     3  1  1.50     -2313.1855   6.0000                                                             
     3  2  2.50     -1801.1183  10.0000                                                             
     4  0  0.50      -567.6789   2.0000                                                             
     4  1  1.50      -421.4692   6.0000                                                             
     4  2  2.50      -236.3471  10.0000                                                             
     4  3  3.50       -31.2665  14.0000                                                             
     5  0  0.50       -77.1084   2.0000                                                             
     6  0  0.50        -5.1438   1.0000                                                             
     5  1  1.50       -41.3856   6.0000                                                             
     5  2  2.50        -3.3185   5.0000                                                             
     5  3  2.50        -1.3606   0.0000                                                             
   Description                                                                                      
     l       E           TYP  RCUT    TYP  RCUT                                                     
     0    -77.1084470     23  2.100                                                                 
     0     -5.1437956     23  2.300                                                                 
     1    -41.3855615     23  2.500                                                                 
     1     -2.7211652     23  2.500                                                                 
     2     -3.3185025     23  2.500                                                                 
     2     -1.5965151     23  2.500                                                                 
     3     -1.3605826     23  2.500                                                                 
  local pseudopotential read in
  partial core-charges read in
  partial kinetic energy density read in
  kinetic energy density of atom read in
  atomic valenz-charges read in
  non local Contribution for L=            0  read in
    real space projection operators read in
  non local Contribution for L=            0  read in
    real space projection operators read in
  non local Contribution for L=            1  read in
    real space projection operators read in
  non local Contribution for L=            1  read in
    real space projection operators read in
  non local Contribution for L=            2  read in
    real space projection operators read in
  non local Contribution for L=            2  read in
    real space projection operators read in
    PAW grid and wavefunctions read in
 
   number of l-projection  operators is LMAX  =            6
   number of lm-projection operators is LMMAX =           18
 
 POTCAR:    PAW_PBE Bi_d 06Sep2000                
   VRHFIN =Bi:                                                                                      
   LEXCH  = PE                                                                                      
   EATOM  =  1959.2045 eV,  143.9975 Ry                                                             
                                                                                                    
   TITEL  = PAW_PBE Bi_d 06Sep2000                                                                  
   LULTRA =        F    use ultrasoft PP ?                                                          
   IUNSCR =        1    unscreen: 0-lin 1-nonlin 2-no                                               
   RPACOR =    2.200    partial core radius                                                         
   POMASS =  208.980; ZVAL   =   15.000    mass and valenz                                          
   RCORE  =    2.500    outmost cutoff radius                                                       
   RWIGS  =    3.090; RWIGS  =    1.635    wigner-seitz radius (au A)                               
   ENMAX  =  242.839; ENMIN  =  182.129 eV                                                          
   ICORE  =        3    local potential                                                             
   LCOR   =        T    correct aug charges                                                         
   LPAW   =        T    paw PP                                                                      
   EAUG   =  442.899                                                                                
   DEXC   =    0.000                                                                                
   RMAX   =    2.551    core radius for proj-oper                                                   
   RAUG   =    1.300    factor for augmentation sphere                                              
   RDEP   =    2.650    radius for radial grids                                                     
   RDEPT  =    2.039    core radius for aug-charge                                                  
                                                                                                    
   Atomic configuration                                                                             
   16 entries                                                                                       
     n  l   j            E        occ.                                                              
     1  0  0.50    -90639.6581   2.0000                                                             
     2  0  0.50    -16282.4666   2.0000                                                             
     2  1  1.50    -13922.8286   6.0000                                                             
     3  0  0.50     -3930.4763   2.0000                                                             
     3  1  1.50     -3256.7013   6.0000                                                             
     3  2  2.50     -2581.6168  10.0000                                                             
     4  0  0.50      -902.2614   2.0000                                                             
     4  1  1.50      -681.5915   6.0000                                                             
     4  2  2.50      -429.8249  10.0000                                                             
     4  3  3.50      -152.6004  14.0000                                                             
     5  0  0.50      -157.7156   2.0000                                                             
     5  1  1.50       -95.8054   6.0000                                                             
     5  2  2.50       -27.0806  10.0000                                                             
     6  0  0.50       -14.4732   2.0000                                                             
     6  1  1.50        -4.5702   3.0000                                                             
     5  3  2.50        -2.7212   0.0000                                                             
   Description                                                                                      
     l       E           TYP  RCUT    TYP  RCUT                                                     
     2    -27.0805982     23  2.500                                                                 
     2     -1.3605826     23  2.500                                                                 
     0    -14.4732271     23  2.500                                                                 
     0      6.8029130     23  2.500                                                                 
     1     -4.5701651     23  2.500                                                                 
     1     13.6058260     23  2.500                                                                 
     3     -1.3605826      7  2.500                                                                 
  local pseudopotential read in
  partial core-charges read in
  partial kinetic energy density read in
  atomic valenz-charges read in
  non local Contribution for L=            2  read in
    real space projection operators read in
  non local Contribution for L=            2  read in
    real space projection operators read in
  non local Contribution for L=            0  read in
    real space projection operators read in
  non local Contribution for L=            0  read in
    real space projection operators read in
  non local Contribution for L=            1  read in
    real space projection operators read in
  non local Contribution for L=            1  read in
    real space projection operators read in
    PAW grid and wavefunctions read in
 
   number of l-projection  operators is LMAX  =            6
   number of lm-projection operators is LMMAX =           18
 
  PAW_PBE O 08Apr2002                   :
 energy of atom  1       EATOM= -432.3788
 kinetic energy error for atom=    0.1156 (will be added to EATOM!!)
  PAW_PBE W_sv 04Sep2015                :
 energy of atom  2       EATOM=-1865.5791
 kinetic energy error for atom=    0.0065 (will be added to EATOM!!)
  PAW_PBE Bi_d 06Sep2000                :
 energy of atom  3       EATOM=-1959.2045
 kinetic energy error for atom=    0.0072 (will be added to EATOM!!)
 
 
 POSCAR: Generated by VASPKIT code
  positions in direct lattice
  velocities in cartesian coordinates
 exchange correlation table for  LEXCH =        8
   RHO(1)=    0.500       N(1)  =     2000
   RHO(2)=  100.500       N(2)  =     4000
 


--------------------------------------------------------------------------------------------------------


 ion  position               nearest neighbor table
   1  0.312  0.312  0.994-   7 1.80   7 2.17
   2  0.819  0.819  0.006-   7 1.83   7 2.02
   3  0.950  0.725  0.549-   7 1.90   8 2.45   8 2.66
   4  0.725  0.950  0.549-   7 1.90   9 2.45   9 2.66
   5  0.974  0.479  0.918-   8 2.18   9 2.27   9 2.38   8 2.49
   6  0.479  0.974  0.918-   9 2.18   8 2.27   8 2.38   9 2.49
   7  0.765  0.765  0.428-   1 1.80   2 1.83   3 1.90   4 1.90   2 2.02   1 2.17
   8  0.353  0.007  0.354-   5 2.18   6 2.27   6 2.38   3 2.45   5 2.49   3 2.66   9 3.75   9 3.75
                             9 3.76   9 3.76
   9  0.007  0.353  0.354-   6 2.18   5 2.27   5 2.38   4 2.45   6 2.49   4 2.66   8 3.75   8 3.75
                             8 3.76   8 3.76
 
  LATTYP: Found a base centered monoclinic cell.
 ALAT       =     5.4979998276
 B/A-ratio  =     3.0118616946
 C/A-ratio  =     0.6962573929
 COS(beta)  =    -0.6934704271
  
  Lattice vectors:
  
 A1 = (   2.7487708124,  -8.2796075390,  -0.0354900959)
 A2 = (   2.7487708124,   8.2796075390,  -0.0354900959)
 A3 = (  -2.6187928059,  -0.0000000000,   2.7920753089)


Analysis of symmetry for initial positions (statically):
=====================================================================
 Subroutine PRICEL returns:
 Original cell was already a primitive cell.
 

 Routine SETGRP: Setting up the symmetry group for a 
 base centered monoclinic supercell.


 Subroutine GETGRP returns: Found  2 space group operations
 (whereof  2 operations were pure point group operations)
 out of a pool of  4 trial point group operations.


The static configuration has the point symmetry C_1h.


Analysis of symmetry for dynamics (positions and initial velocities):
=====================================================================
 Subroutine PRICEL returns:
 Original cell was already a primitive cell.
 

 Routine SETGRP: Setting up the symmetry group for a 
 base centered monoclinic supercell.


 Subroutine GETGRP returns: Found  2 space group operations
 (whereof  2 operations were pure point group operations)
 out of a pool of  4 trial point group operations.


The dynamic configuration has the point symmetry C_1h.


 Subroutine INISYM returns: Found  2 space group operations
 (whereof  2 operations are pure point group operations),
 and found     1 'primitive' translations


----------------------------------------------------------------------------------------

                                     Primitive cell                                     

  volume of cell :     125.5492

  direct lattice vectors                    reciprocal lattice vectors
     2.748770812 -8.279607539 -0.035490096     0.184129285 -0.060389336  0.172701805
     2.748770812  8.279607539 -0.035490096     0.184129285  0.060389336  0.172701805
    -2.618792806 -0.000000000  2.792075309     0.004680938  0.000000000  0.362546957

  length of vectors
     8.724041582  8.724041582  3.828023026     0.259569603  0.259569603  0.362577174

  position of ions in fractional coordinates (direct lattice)
     0.311601001  0.311601001  0.993614475
     0.818679278  0.818679278  0.006226457
     0.950229929  0.725012998  0.549057765
     0.725012998  0.950229929  0.549057765
     0.974437653  0.479071792  0.917801322
     0.479071792  0.974437653  0.917801322
     0.764774586  0.764774586  0.428491841
     0.353187034  0.007069086  0.353511413
     0.007069086  0.353187034  0.353511413

  ion indices of the primitive-cell ions
   primitive index   ion index
                 1           1
                 2           2
                 3           3
                 4           4
                 5           5
                 6           6
                 7           7
                 8           8
                 9           9

----------------------------------------------------------------------------------------

 
 
 KPOINTS: K-Path Generated by VASPKIT.            

Interpolating k-points between supplied coordinates.

 Line segments in fractional coordinates (reciprocal lattice):
    0.000000  0.000000  0.000000  ...  0.000000  0.000000  0.500000
    0.000000  0.000000  0.500000  ...  0.262599  0.262599  0.500000
   -0.262599  0.737401  0.500000  ... -0.500000  0.500000  0.500000
   -0.500000  0.500000  0.500000  ...  0.000000  0.000000  0.000000
    0.000000  0.000000  0.000000  ...  0.500000  0.500000  0.000000
    0.000000  0.500000  0.500000  ...  0.000000  0.000000  0.000000
    0.000000  0.000000  0.000000  ...  0.000000  0.500000  0.000000

 Generated    20 points on each line segment, for a total of    140 k-points:

 Following reciprocal coordinates:
            Coordinates               Weight
  0.000000  0.000000  0.000000      0.007143
  0.000000  0.000000  0.026316      0.007143
  0.000000  0.000000  0.052632      0.007143
  0.000000  0.000000  0.078947      0.007143
  0.000000  0.000000  0.105263      0.007143
  0.000000  0.000000  0.131579      0.007143
  0.000000  0.000000  0.157895      0.007143
  0.000000  0.000000  0.184211      0.007143
  0.000000  0.000000  0.210526      0.007143
  0.000000  0.000000  0.236842      0.007143
  0.000000  0.000000  0.263158      0.007143
  0.000000  0.000000  0.289474      0.007143
  0.000000  0.000000  0.315789      0.007143
  0.000000  0.000000  0.342105      0.007143
  0.000000  0.000000  0.368421      0.007143
  0.000000  0.000000  0.394737      0.007143
  0.000000  0.000000  0.421053      0.007143
  0.000000  0.000000  0.447368      0.007143
  0.000000  0.000000  0.473684      0.007143
  0.000000  0.000000  0.500000      0.007143
  0.000000  0.000000  0.500000      0.007143
  0.013821  0.013821  0.500000      0.007143
  0.027642  0.027642  0.500000      0.007143
  0.041463  0.041463  0.500000      0.007143
  0.055284  0.055284  0.500000      0.007143
  0.069105  0.069105  0.500000      0.007143
  0.082926  0.082926  0.500000      0.007143
  0.096747  0.096747  0.500000      0.007143
  0.110568  0.110568  0.500000      0.007143
  0.124389  0.124389  0.500000      0.007143
  0.138210  0.138210  0.500000      0.007143
  0.152031  0.152031  0.500000      0.007143
  0.165852  0.165852  0.500000      0.007143
  0.179673  0.179673  0.500000      0.007143
  0.193494  0.193494  0.500000      0.007143
  0.207315  0.207315  0.500000      0.007143
  0.221136  0.221136  0.500000      0.007143
  0.234957  0.234957  0.500000      0.007143
  0.248778  0.248778  0.500000      0.007143
  0.262599  0.262599  0.500000      0.007143
 -0.262599  0.737401  0.500000      0.007143
 -0.275094  0.724906  0.500000      0.007143
 -0.287589  0.712411  0.500000      0.007143
 -0.300084  0.699916  0.500000      0.007143
 -0.312578  0.687422  0.500000      0.007143
 -0.325073  0.674927  0.500000      0.007143
 -0.337568  0.662432  0.500000      0.007143
 -0.350063  0.649937  0.500000      0.007143
 -0.362557  0.637443  0.500000      0.007143
 -0.375052  0.624948  0.500000      0.007143
 -0.387547  0.612453  0.500000      0.007143
 -0.400042  0.599958  0.500000      0.007143
 -0.412537  0.587463  0.500000      0.007143
 -0.425031  0.574969  0.500000      0.007143
 -0.437526  0.562474  0.500000      0.007143
 -0.450021  0.549979  0.500000      0.007143
 -0.462516  0.537484  0.500000      0.007143
 -0.475010  0.524990  0.500000      0.007143
 -0.487505  0.512495  0.500000      0.007143
 -0.500000  0.500000  0.500000      0.007143
 -0.500000  0.500000  0.500000      0.007143
 -0.473684  0.473684  0.473684      0.007143
 -0.447368  0.447368  0.447368      0.007143
 -0.421053  0.421053  0.421053      0.007143
 -0.394737  0.394737  0.394737      0.007143
 -0.368421  0.368421  0.368421      0.007143
 -0.342105  0.342105  0.342105      0.007143
 -0.315789  0.315789  0.315789      0.007143
 -0.289474  0.289474  0.289474      0.007143
 -0.263158  0.263158  0.263158      0.007143
 -0.236842  0.236842  0.236842      0.007143
 -0.210526  0.210526  0.210526      0.007143
 -0.184211  0.184211  0.184211      0.007143
 -0.157895  0.157895  0.157895      0.007143
 -0.131579  0.131579  0.131579      0.007143
 -0.105263  0.105263  0.105263      0.007143
 -0.078947  0.078947  0.078947      0.007143
 -0.052632  0.052632  0.052632      0.007143
 -0.026316  0.026316  0.026316      0.007143
 -0.000000  0.000000  0.000000      0.007143
  0.000000  0.000000  0.000000      0.007143
  0.026316  0.026316  0.000000      0.007143
  0.052632  0.052632  0.000000      0.007143
  0.078947  0.078947  0.000000      0.007143
  0.105263  0.105263  0.000000      0.007143
  0.131579  0.131579  0.000000      0.007143
  0.157895  0.157895  0.000000      0.007143
  0.184211  0.184211  0.000000      0.007143
  0.210526  0.210526  0.000000      0.007143
  0.236842  0.236842  0.000000      0.007143
  0.263158  0.263158  0.000000      0.007143
  0.289474  0.289474  0.000000      0.007143
  0.315789  0.315789  0.000000      0.007143
  0.342105  0.342105  0.000000      0.007143
  0.368421  0.368421  0.000000      0.007143
  0.394737  0.394737  0.000000      0.007143
  0.421053  0.421053  0.000000      0.007143
  0.447368  0.447368  0.000000      0.007143
  0.473684  0.473684  0.000000      0.007143
  0.500000  0.500000  0.000000      0.007143
  0.000000  0.500000  0.500000      0.007143
  0.000000  0.473684  0.473684      0.007143
  0.000000  0.447368  0.447368      0.007143
  0.000000  0.421053  0.421053      0.007143
  0.000000  0.394737  0.394737      0.007143
  0.000000  0.368421  0.368421      0.007143
  0.000000  0.342105  0.342105      0.007143
  0.000000  0.315789  0.315789      0.007143
  0.000000  0.289474  0.289474      0.007143
  0.000000  0.263158  0.263158      0.007143
  0.000000  0.236842  0.236842      0.007143
  0.000000  0.210526  0.210526      0.007143
  0.000000  0.184211  0.184211      0.007143
  0.000000  0.157895  0.157895      0.007143
  0.000000  0.131579  0.131579      0.007143
  0.000000  0.105263  0.105263      0.007143
  0.000000  0.078947  0.078947      0.007143
  0.000000  0.052632  0.052632      0.007143
  0.000000  0.026316  0.026316      0.007143
  0.000000  0.000000  0.000000      0.007143
  0.000000  0.000000  0.000000      0.007143
  0.000000  0.026316  0.000000      0.007143
  0.000000  0.052632  0.000000      0.007143
  0.000000  0.078947  0.000000      0.007143
  0.000000  0.105263  0.000000      0.007143
  0.000000  0.131579  0.000000      0.007143
  0.000000  0.157895  0.000000      0.007143
  0.000000  0.184211  0.000000      0.007143
  0.000000  0.210526  0.000000      0.007143
  0.000000  0.236842  0.000000      0.007143
  0.000000  0.263158  0.000000      0.007143
  0.000000  0.289474  0.000000      0.007143
  0.000000  0.315789  0.000000      0.007143
  0.000000  0.342105  0.000000      0.007143
  0.000000  0.368421  0.000000      0.007143
  0.000000  0.394737  0.000000      0.007143
  0.000000  0.421053  0.000000      0.007143
  0.000000  0.447368  0.000000      0.007143
  0.000000  0.473684  0.000000      0.007143
  0.000000  0.500000  0.000000      0.007143

 Following cartesian coordinates:
            Coordinates               Weight
  0.000000  0.000000  0.000000      0.007143
  0.000123  0.000000  0.009541      0.007143
  0.000246  0.000000  0.019081      0.007143
  0.000370  0.000000  0.028622      0.007143
  0.000493  0.000000  0.038163      0.007143
  0.000616  0.000000  0.047704      0.007143
  0.000739  0.000000  0.057244      0.007143
  0.000862  0.000000  0.066785      0.007143
  0.000985  0.000000  0.076326      0.007143
  0.001109  0.000000  0.085866      0.007143
  0.001232  0.000000  0.095407      0.007143
  0.001355  0.000000  0.104948      0.007143
  0.001478  0.000000  0.114489      0.007143
  0.001601  0.000000  0.124029      0.007143
  0.001725  0.000000  0.133570      0.007143
  0.001848  0.000000  0.143111      0.007143
  0.001971  0.000000  0.152651      0.007143
  0.002094  0.000000  0.162192      0.007143
  0.002217  0.000000  0.171733      0.007143
  0.002340  0.000000  0.181273      0.007143
  0.002340  0.000000  0.181273      0.007143
  0.007430  0.000000  0.186047      0.007143
  0.012520  0.000000  0.190821      0.007143
  0.017610  0.000000  0.195595      0.007143
  0.022699  0.000000  0.200369      0.007143
  0.027789  0.000000  0.205143      0.007143
  0.032879  0.000000  0.209916      0.007143
  0.037968  0.000000  0.214690      0.007143
  0.043058  0.000000  0.219464      0.007143
  0.048148  0.000000  0.224238      0.007143
  0.053238  0.000000  0.229012      0.007143
  0.058327  0.000000  0.233786      0.007143
  0.063417  0.000000  0.238559      0.007143
  0.068507  0.000000  0.243333      0.007143
  0.073596  0.000000  0.248107      0.007143
  0.078686  0.000000  0.252881      0.007143
  0.083776  0.000000  0.257655      0.007143
  0.088866  0.000000  0.262429      0.007143
  0.093955  0.000000  0.267202      0.007143
  0.099045  0.000000  0.271976      0.007143
  0.089765  0.060389  0.263273      0.007143
  0.085164  0.060389  0.258957      0.007143
  0.080563  0.060389  0.254641      0.007143
  0.075961  0.060389  0.250325      0.007143
  0.071360  0.060389  0.246010      0.007143
  0.066759  0.060389  0.241694      0.007143
  0.062157  0.060389  0.237378      0.007143
  0.057556  0.060389  0.233062      0.007143
  0.052955  0.060389  0.228747      0.007143
  0.048354  0.060389  0.224431      0.007143
  0.043752  0.060389  0.220115      0.007143
  0.039151  0.060389  0.215799      0.007143
  0.034550  0.060389  0.211484      0.007143
  0.029948  0.060389  0.207168      0.007143
  0.025347  0.060389  0.202852      0.007143
  0.020746  0.060389  0.198536      0.007143
  0.016144  0.060389  0.194221      0.007143
  0.011543  0.060389  0.189905      0.007143
  0.006942  0.060389  0.185589      0.007143
  0.002340  0.060389  0.181273      0.007143
  0.002340  0.060389  0.181273      0.007143
  0.002217  0.057211  0.171733      0.007143
  0.002094  0.054033  0.162192      0.007143
  0.001971  0.050854  0.152651      0.007143
  0.001848  0.047676  0.143111      0.007143
  0.001725  0.044497  0.133570      0.007143
  0.001601  0.041319  0.124029      0.007143
  0.001478  0.038141  0.114489      0.007143
  0.001355  0.034962  0.104948      0.007143
  0.001232  0.031784  0.095407      0.007143
  0.001109  0.028605  0.085866      0.007143
  0.000985  0.025427  0.076326      0.007143
  0.000862  0.022249  0.066785      0.007143
  0.000739  0.019070  0.057244      0.007143
  0.000616  0.015892  0.047704      0.007143
  0.000493  0.012714  0.038163      0.007143
  0.000370  0.009535  0.028622      0.007143
  0.000246  0.006357  0.019081      0.007143
  0.000123  0.003178  0.009541      0.007143
  0.000000  0.000000  0.000000      0.007143
  0.000000  0.000000  0.000000      0.007143
  0.009691  0.000000  0.009090      0.007143
  0.019382  0.000000  0.018179      0.007143
  0.029073  0.000000  0.027269      0.007143
  0.038764  0.000000  0.036358      0.007143
  0.048455  0.000000  0.045448      0.007143
  0.058146  0.000000  0.054537      0.007143
  0.067837  0.000000  0.063627      0.007143
  0.077528  0.000000  0.072717      0.007143
  0.087219  0.000000  0.081806      0.007143
  0.096910  0.000000  0.090896      0.007143
  0.106601  0.000000  0.099985      0.007143
  0.116292  0.000000  0.109075      0.007143
  0.125983  0.000000  0.118164      0.007143
  0.135674  0.000000  0.127254      0.007143
  0.145365  0.000000  0.136344      0.007143
  0.155056  0.000000  0.145433      0.007143
  0.164747  0.000000  0.154523      0.007143
  0.174438  0.000000  0.163612      0.007143
  0.184129  0.000000  0.172702      0.007143
  0.094405  0.030195  0.267624      0.007143
  0.089436  0.028605  0.253539      0.007143
  0.084468  0.027016  0.239453      0.007143
  0.079499  0.025427  0.225368      0.007143
  0.074530  0.023838  0.211282      0.007143
  0.069562  0.022249  0.197197      0.007143
  0.064593  0.020660  0.183111      0.007143
  0.059624  0.019070  0.169026      0.007143
  0.054656  0.017481  0.154940      0.007143
  0.049687  0.015892  0.140855      0.007143
  0.044718  0.014303  0.126769      0.007143
  0.039750  0.012714  0.112684      0.007143
  0.034781  0.011124  0.098598      0.007143
  0.029812  0.009535  0.084513      0.007143
  0.024843  0.007946  0.070427      0.007143
  0.019875  0.006357  0.056342      0.007143
  0.014906  0.004768  0.042256      0.007143
  0.009937  0.003178  0.028171      0.007143
  0.004969  0.001589  0.014085      0.007143
  0.000000  0.000000  0.000000      0.007143
  0.000000  0.000000  0.000000      0.007143
  0.004846  0.001589  0.004545      0.007143
  0.009691  0.003178  0.009090      0.007143
  0.014537  0.004768  0.013634      0.007143
  0.019382  0.006357  0.018179      0.007143
  0.024228  0.007946  0.022724      0.007143
  0.029073  0.009535  0.027269      0.007143
  0.033919  0.011124  0.031813      0.007143
  0.038764  0.012714  0.036358      0.007143
  0.043610  0.014303  0.040903      0.007143
  0.048455  0.015892  0.045448      0.007143
  0.053301  0.017481  0.049993      0.007143
  0.058146  0.019070  0.054537      0.007143
  0.062992  0.020660  0.059082      0.007143
  0.067837  0.022249  0.063627      0.007143
  0.072683  0.023838  0.068172      0.007143
  0.077528  0.025427  0.072717      0.007143
  0.082374  0.027016  0.077261      0.007143
  0.087219  0.028605  0.081806      0.007143
  0.092065  0.030195  0.086351      0.007143
 


--------------------------------------------------------------------------------------------------------




 Dimension of arrays:
   k-points           NKPTS =    140   k-points in BZ     NKDIM =    140   number of bands    NBANDS=     48
   number of dos      NEDOS =   2001   number of ions     NIONS =      9
   non local maximal  LDIM  =      6   non local SUM 2l+1 LMDIM =     18
   total plane-waves  NPLWV = 100800
   max r-space proj   IRMAX =      1   max aug-charges    IRDMAX= 366785
   dimension x,y,z NGX =    60 NGY =   60 NGZ =   28
   dimension x,y,z NGXF=   120 NGYF=  120 NGZF=   56
   support grid    NGXF=   240 NGYF=  240 NGZF=  112
   ions per type =               6   1   2
   NGX,Y,Z   is equivalent  to a cutoff of  11.43, 11.43, 12.16 a.u.
   NGXF,Y,Z  is equivalent  to a cutoff of  22.87, 22.87, 24.32 a.u.

 SYSTEM =  unknown system                          
 POSCAR =  Generated by VASPKIT code               

 Startparameter for this run:
   NWRITE =      2    write-flag & timer
   PREC   = accura    normal or accurate (medium, high low for compatibility)
   ISTART =      0    job   : 0-new  1-cont  2-samecut
   ICHARG =     11    charge: 1-file 2-atom 10-const
   ISPIN  =      1    spin polarized calculation?
   LNONCOLLINEAR =      F non collinear calculations
   LSORBIT =      F    spin-orbit coupling
   INIWAV =      1    electr: 0-lowe 1-rand  2-diag
   LASPH  =      T    aspherical Exc in radial PAW
 Electronic Relaxation 1
   ENCUT  =  400.0 eV  29.40 Ry    5.42 a.u.  14.23 14.23  6.24*2*pi/ulx,y,z
   ENINI  =  400.0     initial cutoff
   ENAUG  =  605.4 eV  augmentation charge cutoff
   NELM   =     60;   NELMIN=  2; NELMDL=  0     # of ELM steps 
   EDIFF  = 0.1E-07   stopping-criterion for ELM
   LREAL  =      F    real-space projection
   NLSPLINE    = F    spline interpolate recip. space projectors
   LCOMPAT=      F    compatible to vasp.4.4
   GGA_COMPAT  = T    GGA compatible to vasp.4.4-vasp.4.6
   LMAXPAW     = -100 max onsite density
   LMAXMIX     =    2 max onsite mixed and CHGCAR
   VOSKOWN=      0    Vosko Wilk Nusair interpolation
   ROPT   =    0.00000   0.00000   0.00000
 Ionic relaxation
   EDIFFG = 0.1E-06   stopping-criterion for IOM
   NSW    =      0    number of steps for IOM
   NBLOCK =      1;   KBLOCK =      1    inner block; outer block 
   IBRION =     -1    ionic relax: 0-MD 1-quasi-New 2-CG
   NFREE  =      0    steps in history (QN), initial steepest desc. (CG)
   ISIF   =      2    stress and relaxation
   IWAVPR =     10    prediction:  0-non 1-charg 2-wave 3-comb
   ISYM   =      2    0-nonsym 1-usesym 2-fastsym
   LCORR  =      T    Harris-Foulkes like correction to forces

   POTIM  = 0.5000    time-step for ionic-motion
   TEIN   =    0.0    initial temperature
   TEBEG  =    0.0;   TEEND  =   0.0 temperature during run
   SMASS  =  -3.00    Nose mass-parameter (am)
   estimated Nose-frequenzy (Omega)   =  0.10E-29 period in steps = 0.13E+47 mass=  -0.174E-26a.u.
   SCALEE = 1.0000    scale energy and forces
   NPACO  =    256;   APACO  = 10.0  distance and # of slots for P.C.
   PSTRESS=    0.0 pullay stress

  Mass of Ions in am
   POMASS =  16.00183.85208.98
  Ionic Valenz
   ZVAL   =   6.00 14.00 15.00
  Atomic Wigner-Seitz radii
   RWIGS  =  -1.00 -1.00 -1.00
  virtual crystal weights 
   VCA    =   1.00  1.00  1.00
   NELECT =      80.0000    total number of electrons
   NUPDOWN=      -1.0000    fix difference up-down

 DOS related values:
   EMIN   =  10.00;   EMAX   =-10.00  energy-range for DOS
   EFERMI =   0.00;   METHOD = LEGACY      
   ISMEAR =     0;   SIGMA  =   0.05  broadening in eV -4-tet -1-fermi 0-gaus

 Electronic relaxation 2 (details)
   IALGO  =     38    algorithm
   LDIAG  =      T    sub-space diagonalisation (order eigenvalues)
   LSUBROT=      F    optimize rotation matrix (better conditioning)
   TURBO    =      0    0=normal 1=particle mesh
   IRESTART =      0    0=no restart 2=restart with 2 vectors
   NREBOOT  =      0    no. of reboots
   NMIN     =      0    reboot dimension
   EREF     =   0.00    reference energy to select bands
   IMIX   =      4    mixing-type and parameters
     AMIX     =   0.40;   BMIX     =  1.00
     AMIX_MAG =   1.60;   BMIX_MAG =  1.00
     AMIN     =   0.10
     WC   =   100.;   INIMIX=   1;  MIXPRE=   1;  MAXMIX= -45

 Intra band minimization:
   WEIMIN = 0.0000     energy-eigenvalue tresh-hold
   EBREAK =  0.52E-10  absolut break condition
   DEPER  =   0.30     relativ break condition  

   TIME   =   0.40     timestep for ELM

  volume/ion in A,a.u.               =      13.95        94.14
  Fermi-wavevector in a.u.,A,eV,Ry     =   1.408749  2.662149 27.001749  1.984573
  Thomas-Fermi vector in A             =   2.530875
 
 Write flags
   LWAVE        =      T    write WAVECAR
   LDOWNSAMPLE  =      F    k-point downsampling of WAVECAR
   LCHARG       =      T    write CHGCAR
   LVTOT        =      F    write LOCPOT, total local potential
   LVHAR        =      F    write LOCPOT, Hartree potential only
   LELF         =      F    write electronic localiz. function (ELF)
   LORBIT       =     11    0 simple, 1 ext, 2 COOP (PROOUT), +10 PAW based schemes


 Dipole corrections
   LMONO  =      F    monopole corrections only (constant potential shift)
   LDIPOL =      F    correct potential (dipole corrections)
   IDIPOL =      0    1-x, 2-y, 3-z, 4-all directions 
   EPSILON=  1.0000000 bulk dielectric constant

 Exchange correlation treatment:
   GGA     =    --    GGA type
   LEXCH   =     8    internal setting for exchange type
   LIBXC   =     F    Libxc                    
   VOSKOWN =     0    Vosko Wilk Nusair interpolation
   LHFCALC =     F    Hartree Fock is set to
   LHFONE  =     F    Hartree Fock one center treatment
   AEXX    =    0.0000 exact exchange contribution

 Linear response parameters
   LEPSILON=     F    determine dielectric tensor
   LRPA    =     F    only Hartree local field effects (RPA)
   LNABLA  =     F    use nabla operator in PAW spheres
   LVEL    =     F    velocity operator in full k-point grid
   CSHIFT  =0.1000    complex shift for real part using Kramers Kronig
   OMEGAMAX=  -1.0    maximum frequency
   DEG_THRESHOLD= 0.2000000E-02 threshold for treating states as degnerate
   RTIME   =   -0.100 relaxation time in fs
  (WPLASMAI=    0.000 imaginary part of plasma frequency in eV, 0.658/RTIME)
   DFIELD  = 0.0000000 0.0000000 0.0000000 field for delta impulse in time
 
  Optional k-point grid parameters
   LKPOINTS_OPT  =     F    use optional k-point grid
   KPOINTS_OPT_MODE=     1    mode for optional k-point grid
 
 Orbital magnetization related:
   ORBITALMAG=     F  switch on orbital magnetization
   LCHIMAG   =     F  perturbation theory with respect to B field
   DQ        =  0.001000  dq finite difference perturbation B field
   LLRAUG    =     F  two centre corrections for induced B field
   LBONE     =     F  B-component reconstruction in AE one-centre
   LVGVCALC  =     T  calculate vGv susceptibility
   LVGVAPPL  =     F  apply vGv susceptibility instead of pGv for G=0

 Random number generation:
   RANDOM_GENERATOR = DEFAULT
   PCG_SEED         = not used


--------------------------------------------------------------------------------------------------------


 Static calculation
 charge density and potential remain constant during run
 non-spin polarized calculation
 Variant of blocked Davidson
 Davidson routine will perform the subspace rotation
 perform sub-space diagonalisation
    after iterative eigenvector-optimisation
 no mixing
 using additional bands             8
 reciprocal scheme for non local part
 use partial core corrections
 calculate Harris-corrections to forces 
   (improved forces if not selfconsistent)
 use gradient corrections 
 WARNING: stress and forces are not correct
  (second derivative of E(xc) not defined)
 use of overlap-Matrix (Vanderbilt PP)
 Gauss-broadening in eV      SIGMA  =   0.05


--------------------------------------------------------------------------------------------------------


  energy-cutoff  :      400.00
  volume of cell :      125.55
      direct lattice vectors                 reciprocal lattice vectors
     2.748770812 -8.279607539 -0.035490096     0.184129285 -0.060389336  0.172701805
     2.748770812  8.279607539 -0.035490096     0.184129285  0.060389336  0.172701805
    -2.618792806 -0.000000000  2.792075309     0.004680938  0.000000000  0.362546957

  length of vectors
     8.724041582  8.724041582  3.828023026     0.259569603  0.259569603  0.362577174


 
 k-points in units of 2pi/SCALE and weight: K-Path Generated by VASPKIT.            
   0.00000000  0.00000000  0.00000000       0.007
   0.00012318  0.00000000  0.00954071       0.007
   0.00024637  0.00000000  0.01908142       0.007
   0.00036955  0.00000000  0.02862213       0.007
   0.00049273  0.00000000  0.03816284       0.007
   0.00061591  0.00000000  0.04770355       0.007
   0.00073910  0.00000000  0.05724426       0.007
   0.00086228  0.00000000  0.06678497       0.007
   0.00098546  0.00000000  0.07632568       0.007
   0.00110864  0.00000000  0.08586638       0.007
   0.00123183  0.00000000  0.09540709       0.007
   0.00135501  0.00000000  0.10494780       0.007
   0.00147819  0.00000000  0.11448851       0.007
   0.00160137  0.00000000  0.12402922       0.007
   0.00172456  0.00000000  0.13356993       0.007
   0.00184774  0.00000000  0.14311064       0.007
   0.00197092  0.00000000  0.15265135       0.007
   0.00209410  0.00000000  0.16219206       0.007
   0.00221729  0.00000000  0.17173277       0.007
   0.00234047  0.00000000  0.18127348       0.007
   0.00234047  0.00000000  0.18127348       0.007
   0.00743018  0.00000000  0.18604731       0.007
   0.01251988  0.00000000  0.19082114       0.007
   0.01760959  0.00000000  0.19559497       0.007
   0.02269930  0.00000000  0.20036879       0.007
   0.02778901  0.00000000  0.20514262       0.007
   0.03287872  0.00000000  0.20991645       0.007
   0.03796842  0.00000000  0.21469028       0.007
   0.04305813  0.00000000  0.21946411       0.007
   0.04814784  0.00000000  0.22423794       0.007
   0.05323755  0.00000000  0.22901177       0.007
   0.05832725  0.00000000  0.23378560       0.007
   0.06341696  0.00000000  0.23855943       0.007
   0.06850667  0.00000000  0.24333326       0.007
   0.07359638  0.00000000  0.24810708       0.007
   0.07868609  0.00000000  0.25288091       0.007
   0.08377579  0.00000000  0.25765474       0.007
   0.08886550  0.00000000  0.26242857       0.007
   0.09395521  0.00000000  0.26720240       0.007
   0.09904492  0.00000000  0.27197623       0.007
   0.08976531  0.06038934  0.26327253       0.007
   0.08516400  0.06038934  0.25895679       0.007
   0.08056269  0.06038934  0.25464105       0.007
   0.07596138  0.06038934  0.25032531       0.007
   0.07136008  0.06038934  0.24600957       0.007
   0.06675877  0.06038934  0.24169383       0.007
   0.06215746  0.06038934  0.23737809       0.007
   0.05755616  0.06038934  0.23306235       0.007
   0.05295485  0.06038934  0.22874662       0.007
   0.04835354  0.06038934  0.22443088       0.007
   0.04375223  0.06038934  0.22011514       0.007
   0.03915093  0.06038934  0.21579940       0.007
   0.03454962  0.06038934  0.21148366       0.007
   0.02994831  0.06038934  0.20716792       0.007
   0.02534701  0.06038934  0.20285218       0.007
   0.02074570  0.06038934  0.19853644       0.007
   0.01614439  0.06038934  0.19422070       0.007
   0.01154308  0.06038934  0.18990496       0.007
   0.00694178  0.06038934  0.18558922       0.007
   0.00234047  0.06038934  0.18127348       0.007
   0.00234047  0.06038934  0.18127348       0.007
   0.00221729  0.05721095  0.17173277       0.007
   0.00209410  0.05403256  0.16219206       0.007
   0.00197092  0.05085418  0.15265135       0.007
   0.00184774  0.04767579  0.14311064       0.007
   0.00172456  0.04449741  0.13356993       0.007
   0.00160137  0.04131902  0.12402922       0.007
   0.00147819  0.03814063  0.11448851       0.007
   0.00135501  0.03496225  0.10494780       0.007
   0.00123183  0.03178386  0.09540709       0.007
   0.00110864  0.02860547  0.08586638       0.007
   0.00098546  0.02542709  0.07632568       0.007
   0.00086228  0.02224870  0.06678497       0.007
   0.00073910  0.01907032  0.05724426       0.007
   0.00061591  0.01589193  0.04770355       0.007
   0.00049273  0.01271354  0.03816284       0.007
   0.00036955  0.00953516  0.02862213       0.007
   0.00024637  0.00635677  0.01908142       0.007
   0.00012318  0.00317839  0.00954071       0.007
   0.00000000  0.00000000  0.00000000       0.007
   0.00000000  0.00000000  0.00000000       0.007
   0.00969101  0.00000000  0.00908957       0.007
   0.01938203  0.00000000  0.01817914       0.007
   0.02907304  0.00000000  0.02726871       0.007
   0.03876406  0.00000000  0.03635827       0.007
   0.04845507  0.00000000  0.04544784       0.007
   0.05814609  0.00000000  0.05453741       0.007
   0.06783710  0.00000000  0.06362698       0.007
   0.07752812  0.00000000  0.07271655       0.007
   0.08721913  0.00000000  0.08180612       0.007
   0.09691015  0.00000000  0.09089569       0.007
   0.10660116  0.00000000  0.09998526       0.007
   0.11629218  0.00000000  0.10907482       0.007
   0.12598319  0.00000000  0.11816439       0.007
   0.13567421  0.00000000  0.12725396       0.007
   0.14536522  0.00000000  0.13634353       0.007
   0.15505624  0.00000000  0.14543310       0.007
   0.16474725  0.00000000  0.15452267       0.007
   0.17443827  0.00000000  0.16361224       0.007
   0.18412928  0.00000000  0.17270181       0.007
   0.09440511  0.03019467  0.26762438       0.007
   0.08943642  0.02860547  0.25353889       0.007
   0.08446773  0.02701628  0.23945339       0.007
   0.07949904  0.02542709  0.22536790       0.007
   0.07453035  0.02383790  0.21128241       0.007
   0.06956166  0.02224870  0.19719691       0.007
   0.06459297  0.02065951  0.18311142       0.007
   0.05962428  0.01907032  0.16902592       0.007
   0.05465559  0.01748112  0.15494043       0.007
   0.04968690  0.01589193  0.14085494       0.007
   0.04471821  0.01430274  0.12676944       0.007
   0.03974952  0.01271354  0.11268395       0.007
   0.03478083  0.01112435  0.09859846       0.007
   0.02981214  0.00953516  0.08451296       0.007
   0.02484345  0.00794597  0.07042747       0.007
   0.01987476  0.00635677  0.05634197       0.007
   0.01490607  0.00476758  0.04225648       0.007
   0.00993738  0.00317839  0.02817099       0.007
   0.00496869  0.00158919  0.01408549       0.007
   0.00000000  0.00000000  0.00000000       0.007
   0.00000000  0.00000000  0.00000000       0.007
   0.00484551  0.00158919  0.00454478       0.007
   0.00969101  0.00317839  0.00908957       0.007
   0.01453652  0.00476758  0.01363435       0.007
   0.01938203  0.00635677  0.01817914       0.007
   0.02422754  0.00794597  0.02272392       0.007
   0.02907304  0.00953516  0.02726871       0.007
   0.03391855  0.01112435  0.03181349       0.007
   0.03876406  0.01271354  0.03635827       0.007
   0.04360957  0.01430274  0.04090306       0.007
   0.04845507  0.01589193  0.04544784       0.007
   0.05330058  0.01748112  0.04999263       0.007
   0.05814609  0.01907032  0.05453741       0.007
   0.06299160  0.02065951  0.05908220       0.007
   0.06783710  0.02224870  0.06362698       0.007
   0.07268261  0.02383790  0.06817177       0.007
   0.07752812  0.02542709  0.07271655       0.007
   0.08237363  0.02701628  0.07726133       0.007
   0.08721913  0.02860547  0.08180612       0.007
   0.09206464  0.03019467  0.08635090       0.007
 
 k-points in reciprocal lattice and weights: K-Path Generated by VASPKIT.            
   0.00000000  0.00000000  0.00000000       0.007
   0.00000000  0.00000000  0.02631579       0.007
   0.00000000  0.00000000  0.05263158       0.007
   0.00000000  0.00000000  0.07894737       0.007
   0.00000000  0.00000000  0.10526316       0.007
   0.00000000  0.00000000  0.13157895       0.007
   0.00000000  0.00000000  0.15789474       0.007
   0.00000000  0.00000000  0.18421053       0.007
   0.00000000  0.00000000  0.21052632       0.007
   0.00000000  0.00000000  0.23684211       0.007
   0.00000000  0.00000000  0.26315789       0.007
   0.00000000  0.00000000  0.28947368       0.007
   0.00000000  0.00000000  0.31578947       0.007
   0.00000000  0.00000000  0.34210526       0.007
   0.00000000  0.00000000  0.36842105       0.007
   0.00000000  0.00000000  0.39473684       0.007
   0.00000000  0.00000000  0.42105263       0.007
   0.00000000  0.00000000  0.44736842       0.007
   0.00000000  0.00000000  0.47368421       0.007
   0.00000000  0.00000000  0.50000000       0.007
   0.00000000  0.00000000  0.50000000       0.007
   0.01382102  0.01382102  0.50000000       0.007
   0.02764203  0.02764203  0.50000000       0.007
   0.04146305  0.04146305  0.50000000       0.007
   0.05528407  0.05528407  0.50000000       0.007
   0.06910508  0.06910508  0.50000000       0.007
   0.08292610  0.08292610  0.50000000       0.007
   0.09674712  0.09674712  0.50000000       0.007
   0.11056813  0.11056813  0.50000000       0.007
   0.12438915  0.12438915  0.50000000       0.007
   0.13821017  0.13821017  0.50000000       0.007
   0.15203118  0.15203118  0.50000000       0.007
   0.16585220  0.16585220  0.50000000       0.007
   0.17967321  0.17967321  0.50000000       0.007
   0.19349423  0.19349423  0.50000000       0.007
   0.20731525  0.20731525  0.50000000       0.007
   0.22113626  0.22113626  0.50000000       0.007
   0.23495728  0.23495728  0.50000000       0.007
   0.24877830  0.24877830  0.50000000       0.007
   0.26259931  0.26259931  0.50000000       0.007
  -0.26259931  0.73740069  0.50000000       0.007
  -0.27509409  0.72490591  0.50000000       0.007
  -0.28758886  0.71241114  0.50000000       0.007
  -0.30008363  0.69991637  0.50000000       0.007
  -0.31257841  0.68742159  0.50000000       0.007
  -0.32507318  0.67492682  0.50000000       0.007
  -0.33756795  0.66243205  0.50000000       0.007
  -0.35006272  0.64993728  0.50000000       0.007
  -0.36255750  0.63744250  0.50000000       0.007
  -0.37505227  0.62494773  0.50000000       0.007
  -0.38754704  0.61245296  0.50000000       0.007
  -0.40004182  0.59995818  0.50000000       0.007
  -0.41253659  0.58746341  0.50000000       0.007
  -0.42503136  0.57496864  0.50000000       0.007
  -0.43752614  0.56247386  0.50000000       0.007
  -0.45002091  0.54997909  0.50000000       0.007
  -0.46251568  0.53748432  0.50000000       0.007
  -0.47501045  0.52498955  0.50000000       0.007
  -0.48750523  0.51249477  0.50000000       0.007
  -0.50000000  0.50000000  0.50000000       0.007
  -0.50000000  0.50000000  0.50000000       0.007
  -0.47368421  0.47368421  0.47368421       0.007
  -0.44736842  0.44736842  0.44736842       0.007
  -0.42105263  0.42105263  0.42105263       0.007
  -0.39473684  0.39473684  0.39473684       0.007
  -0.36842105  0.36842105  0.36842105       0.007
  -0.34210526  0.34210526  0.34210526       0.007
  -0.31578947  0.31578947  0.31578947       0.007
  -0.28947368  0.28947368  0.28947368       0.007
  -0.26315789  0.26315789  0.26315789       0.007
  -0.23684211  0.23684211  0.23684211       0.007
  -0.21052632  0.21052632  0.21052632       0.007
  -0.18421053  0.18421053  0.18421053       0.007
  -0.15789474  0.15789474  0.15789474       0.007
  -0.13157895  0.13157895  0.13157895       0.007
  -0.10526316  0.10526316  0.10526316       0.007
  -0.07894737  0.07894737  0.07894737       0.007
  -0.05263158  0.05263158  0.05263158       0.007
  -0.02631579  0.02631579  0.02631579       0.007
  -0.00000000  0.00000000  0.00000000       0.007
   0.00000000  0.00000000  0.00000000       0.007
   0.02631579  0.02631579  0.00000000       0.007
   0.05263158  0.05263158  0.00000000       0.007
   0.07894737  0.07894737  0.00000000       0.007
   0.10526316  0.10526316  0.00000000       0.007
   0.13157895  0.13157895  0.00000000       0.007
   0.15789474  0.15789474  0.00000000       0.007
   0.18421053  0.18421053  0.00000000       0.007
   0.21052632  0.21052632  0.00000000       0.007
   0.23684211  0.23684211  0.00000000       0.007
   0.26315789  0.26315789  0.00000000       0.007
   0.28947368  0.28947368  0.00000000       0.007
   0.31578947  0.31578947  0.00000000       0.007
   0.34210526  0.34210526  0.00000000       0.007
   0.36842105  0.36842105  0.00000000       0.007
   0.39473684  0.39473684  0.00000000       0.007
   0.42105263  0.42105263  0.00000000       0.007
   0.44736842  0.44736842  0.00000000       0.007
   0.47368421  0.47368421  0.00000000       0.007
   0.50000000  0.50000000  0.00000000       0.007
   0.00000000  0.50000000  0.50000000       0.007
   0.00000000  0.47368421  0.47368421       0.007
   0.00000000  0.44736842  0.44736842       0.007
   0.00000000  0.42105263  0.42105263       0.007
   0.00000000  0.39473684  0.39473684       0.007
   0.00000000  0.36842105  0.36842105       0.007
   0.00000000  0.34210526  0.34210526       0.007
   0.00000000  0.31578947  0.31578947       0.007
   0.00000000  0.28947368  0.28947368       0.007
   0.00000000  0.26315789  0.26315789       0.007
   0.00000000  0.23684211  0.23684211       0.007
   0.00000000  0.21052632  0.21052632       0.007
   0.00000000  0.18421053  0.18421053       0.007
   0.00000000  0.15789474  0.15789474       0.007
   0.00000000  0.13157895  0.13157895       0.007
   0.00000000  0.10526316  0.10526316       0.007
   0.00000000  0.07894737  0.07894737       0.007
   0.00000000  0.05263158  0.05263158       0.007
   0.00000000  0.02631579  0.02631579       0.007
   0.00000000  0.00000000  0.00000000       0.007
   0.00000000  0.00000000  0.00000000       0.007
   0.00000000  0.02631579  0.00000000       0.007
   0.00000000  0.05263158  0.00000000       0.007
   0.00000000  0.07894737  0.00000000       0.007
   0.00000000  0.10526316  0.00000000       0.007
   0.00000000  0.13157895  0.00000000       0.007
   0.00000000  0.15789474  0.00000000       0.007
   0.00000000  0.18421053  0.00000000       0.007
   0.00000000  0.21052632  0.00000000       0.007
   0.00000000  0.23684211  0.00000000       0.007
   0.00000000  0.26315789  0.00000000       0.007
   0.00000000  0.28947368  0.00000000       0.007
   0.00000000  0.31578947  0.00000000       0.007
   0.00000000  0.34210526  0.00000000       0.007
   0.00000000  0.36842105  0.00000000       0.007
   0.00000000  0.39473684  0.00000000       0.007
   0.00000000  0.42105263  0.00000000       0.007
   0.00000000  0.44736842  0.00000000       0.007
   0.00000000  0.47368421  0.00000000       0.007
   0.00000000  0.50000000  0.00000000       0.007
 
 position of ions in fractional coordinates (direct lattice) 
   0.31160100  0.31160100  0.99361447
   0.81867928  0.81867928  0.00622646
   0.95022993  0.72501300  0.54905777
   0.72501300  0.95022993  0.54905777
   0.97443765  0.47907179  0.91780132
   0.47907179  0.97443765  0.91780132
   0.76477459  0.76477459  0.42849184
   0.35318703  0.00706909  0.35351141
   0.00706909  0.35318703  0.35351141
 
 position of ions in cartesian coordinates  (Angst):
  -0.88903096 -0.00000000  2.75212894
   4.48441761  0.00000000 -0.04072527
   3.16699034 -1.86470780  1.47355610
   3.16699034  1.86470780  1.47355610
   1.59183284 -4.10143491  2.51098522
   1.59183284  4.10143491  2.51098522
   3.08224877 -0.00000000  1.14209764
   0.06448837 -2.86572077  0.97424496
   0.06448837  2.86572077  0.97424496
 


--------------------------------------------------------------------------------------------------------


 k-point   1 :   0.0000 0.0000 0.0000  plane waves:    2275
 k-point   2 :   0.0000 0.0000 0.0263  plane waves:    2271
 k-point   3 :   0.0000 0.0000 0.0526  plane waves:    2280
 k-point   4 :   0.0000 0.0000 0.0789  plane waves:    2284
 k-point   5 :   0.0000 0.0000 0.1053  plane waves:    2283
 k-point   6 :   0.0000 0.0000 0.1316  plane waves:    2286
 k-point   7 :   0.0000 0.0000 0.1579  plane waves:    2286
 k-point   8 :   0.0000 0.0000 0.1842  plane waves:    2285
 k-point   9 :   0.0000 0.0000 0.2105  plane waves:    2279
 k-point  10 :   0.0000 0.0000 0.2368  plane waves:    2271
 k-point  11 :   0.0000 0.0000 0.2632  plane waves:    2276
 k-point  12 :   0.0000 0.0000 0.2895  plane waves:    2280
 k-point  13 :   0.0000 0.0000 0.3158  plane waves:    2268
 k-point  14 :   0.0000 0.0000 0.3421  plane waves:    2276
 k-point  15 :   0.0000 0.0000 0.3684  plane waves:    2269
 k-point  16 :   0.0000 0.0000 0.3947  plane waves:    2263
 k-point  17 :   0.0000 0.0000 0.4211  plane waves:    2262
 k-point  18 :   0.0000 0.0000 0.4474  plane waves:    2257
 k-point  19 :   0.0000 0.0000 0.4737  plane waves:    2255
 k-point  20 :   0.0000 0.0000 0.5000  plane waves:    2256
 k-point  21 :   0.0000 0.0000 0.5000  plane waves:    2256
 k-point  22 :   0.0138 0.0138 0.5000  plane waves:    2257
 k-point  23 :   0.0276 0.0276 0.5000  plane waves:    2259
 k-point  24 :   0.0415 0.0415 0.5000  plane waves:    2264
 k-point  25 :   0.0553 0.0553 0.5000  plane waves:    2272
 k-point  26 :   0.0691 0.0691 0.5000  plane waves:    2281
 k-point  27 :   0.0829 0.0829 0.5000  plane waves:    2283
 k-point  28 :   0.0967 0.0967 0.5000  plane waves:    2287
 k-point  29 :   0.1106 0.1106 0.5000  plane waves:    2289
 k-point  30 :   0.1244 0.1244 0.5000  plane waves:    2292
 k-point  31 :   0.1382 0.1382 0.5000  plane waves:    2290
 k-point  32 :   0.1520 0.1520 0.5000  plane waves:    2286
 k-point  33 :   0.1659 0.1659 0.5000  plane waves:    2290
 k-point  34 :   0.1797 0.1797 0.5000  plane waves:    2296
 k-point  35 :   0.1935 0.1935 0.5000  plane waves:    2292
 k-point  36 :   0.2073 0.2073 0.5000  plane waves:    2285
 k-point  37 :   0.2211 0.2211 0.5000  plane waves:    2290
 k-point  38 :   0.2350 0.2350 0.5000  plane waves:    2290
 k-point  39 :   0.2488 0.2488 0.5000  plane waves:    2282
 k-point  40 :   0.2626 0.2626 0.5000  plane waves:    2286
 k-point  41 :  -0.2626 0.7374 0.5000  plane waves:    2286
 k-point  42 :  -0.2751 0.7249 0.5000  plane waves:    2285
 k-point  43 :  -0.2876 0.7124 0.5000  plane waves:    2280
 k-point  44 :  -0.3001 0.6999 0.5000  plane waves:    2288
 k-point  45 :  -0.3126 0.6874 0.5000  plane waves:    2292
 k-point  46 :  -0.3251 0.6749 0.5000  plane waves:    2294
 k-point  47 :  -0.3376 0.6624 0.5000  plane waves:    2290
 k-point  48 :  -0.3501 0.6499 0.5000  plane waves:    2288
 k-point  49 :  -0.3626 0.6374 0.5000  plane waves:    2290
 k-point  50 :  -0.3751 0.6249 0.5000  plane waves:    2292
 k-point  51 :  -0.3875 0.6125 0.5000  plane waves:    2286
 k-point  52 :  -0.4000 0.6000 0.5000  plane waves:    2289
 k-point  53 :  -0.4125 0.5875 0.5000  plane waves:    2283
 k-point  54 :  -0.4250 0.5750 0.5000  plane waves:    2276
 k-point  55 :  -0.4375 0.5625 0.5000  plane waves:    2274
 k-point  56 :  -0.4500 0.5500 0.5000  plane waves:    2276
 k-point  57 :  -0.4625 0.5375 0.5000  plane waves:    2266
 k-point  58 :  -0.4750 0.5250 0.5000  plane waves:    2265
 k-point  59 :  -0.4875 0.5125 0.5000  plane waves:    2264
 k-point  60 :  -0.5000 0.5000 0.5000  plane waves:    2264
 k-point  61 :  -0.5000 0.5000 0.5000  plane waves:    2264
 k-point  62 :  -0.4737 0.4737 0.4737  plane waves:    2263
 k-point  63 :  -0.4474 0.4474 0.4474  plane waves:    2267
 k-point  64 :  -0.4211 0.4211 0.4211  plane waves:    2268
 k-point  65 :  -0.3947 0.3947 0.3947  plane waves:    2276
 k-point  66 :  -0.3684 0.3684 0.3684  plane waves:    2271
 k-point  67 :  -0.3421 0.3421 0.3421  plane waves:    2276
 k-point  68 :  -0.3158 0.3158 0.3158  plane waves:    2280
 k-point  69 :  -0.2895 0.2895 0.2895  plane waves:    2272
 k-point  70 :  -0.2632 0.2632 0.2632  plane waves:    2277
 k-point  71 :  -0.2368 0.2368 0.2368  plane waves:    2275
 k-point  72 :  -0.2105 0.2105 0.2105  plane waves:    2276
 k-point  73 :  -0.1842 0.1842 0.1842  plane waves:    2275
 k-point  74 :  -0.1579 0.1579 0.1579  plane waves:    2280
 k-point  75 :  -0.1316 0.1316 0.1316  plane waves:    2280
 k-point  76 :  -0.1053 0.1053 0.1053  plane waves:    2277
 k-point  77 :  -0.0789 0.0789 0.0789  plane waves:    2276
 k-point  78 :  -0.0526 0.0526 0.0526  plane waves:    2276
 k-point  79 :  -0.0263 0.0263 0.0263  plane waves:    2270
 k-point  80 :  -0.0000 0.0000 0.0000  plane waves:    2275
 k-point  81 :   0.0000 0.0000 0.0000  plane waves:    2275
 k-point  82 :   0.0263 0.0263 0.0000  plane waves:    2269
 k-point  83 :   0.0526 0.0526 0.0000  plane waves:    2273
 k-point  84 :   0.0789 0.0789 0.0000  plane waves:    2265
 k-point  85 :   0.1053 0.1053 0.0000  plane waves:    2284
 k-point  86 :   0.1316 0.1316 0.0000  plane waves:    2293
 k-point  87 :   0.1579 0.1579 0.0000  plane waves:    2289
 k-point  88 :   0.1842 0.1842 0.0000  plane waves:    2283
 k-point  89 :   0.2105 0.2105 0.0000  plane waves:    2279
 k-point  90 :   0.2368 0.2368 0.0000  plane waves:    2282
 k-point  91 :   0.2632 0.2632 0.0000  plane waves:    2280
 k-point  92 :   0.2895 0.2895 0.0000  plane waves:    2286
 k-point  93 :   0.3158 0.3158 0.0000  plane waves:    2284
 k-point  94 :   0.3421 0.3421 0.0000  plane waves:    2284
 k-point  95 :   0.3684 0.3684 0.0000  plane waves:    2278
 k-point  96 :   0.3947 0.3947 0.0000  plane waves:    2286
 k-point  97 :   0.4211 0.4211 0.0000  plane waves:    2292
 k-point  98 :   0.4474 0.4474 0.0000  plane waves:    2292
 k-point  99 :   0.4737 0.4737 0.0000  plane waves:    2297
 k-point 100 :   0.5000 0.5000 0.0000  plane waves:    2296
 k-point 101 :   0.0000 0.5000 0.5000  plane waves:    2298
 k-point 102 :   0.0000 0.4737 0.4737  plane waves:    2291
 k-point 103 :   0.0000 0.4474 0.4474  plane waves:    2301
 k-point 104 :   0.0000 0.4211 0.4211  plane waves:    2298
 k-point 105 :   0.0000 0.3947 0.3947  plane waves:    2293
 k-point 106 :   0.0000 0.3684 0.3684  plane waves:    2283
 k-point 107 :   0.0000 0.3421 0.3421  plane waves:    2275
 k-point 108 :   0.0000 0.3158 0.3158  plane waves:    2273
 k-point 109 :   0.0000 0.2895 0.2895  plane waves:    2268
 k-point 110 :   0.0000 0.2632 0.2632  plane waves:    2260
 k-point 111 :   0.0000 0.2368 0.2368  plane waves:    2261
 k-point 112 :   0.0000 0.2105 0.2105  plane waves:    2271
 k-point 113 :   0.0000 0.1842 0.1842  plane waves:    2277
 k-point 114 :   0.0000 0.1579 0.1579  plane waves:    2288
 k-point 115 :   0.0000 0.1316 0.1316  plane waves:    2288
 k-point 116 :   0.0000 0.1053 0.1053  plane waves:    2284
 k-point 117 :   0.0000 0.0789 0.0789  plane waves:    2279
 k-point 118 :   0.0000 0.0526 0.0526  plane waves:    2282
 k-point 119 :   0.0000 0.0263 0.0263  plane waves:    2267
 k-point 120 :   0.0000 0.0000 0.0000  plane waves:    2275
 k-point 121 :   0.0000 0.0000 0.0000  plane waves:    2275
 k-point 122 :   0.0000 0.0263 0.0000  plane waves:    2267
 k-point 123 :   0.0000 0.0526 0.0000  plane waves:    2267
 k-point 124 :   0.0000 0.0789 0.0000  plane waves:    2271
 k-point 125 :   0.0000 0.1053 0.0000  plane waves:    2272
 k-point 126 :   0.0000 0.1316 0.0000  plane waves:    2270
 k-point 127 :   0.0000 0.1579 0.0000  plane waves:    2272
 k-point 128 :   0.0000 0.1842 0.0000  plane waves:    2276
 k-point 129 :   0.0000 0.2105 0.0000  plane waves:    2282
 k-point 130 :   0.0000 0.2368 0.0000  plane waves:    2290
 k-point 131 :   0.0000 0.2632 0.0000  plane waves:    2292
 k-point 132 :   0.0000 0.2895 0.0000  plane waves:    2288
 k-point 133 :   0.0000 0.3158 0.0000  plane waves:    2285
 k-point 134 :   0.0000 0.3421 0.0000  plane waves:    2284
 k-point 135 :   0.0000 0.3684 0.0000  plane waves:    2288
 k-point 136 :   0.0000 0.3947 0.0000  plane waves:    2288
 k-point 137 :   0.0000 0.4211 0.0000  plane waves:    2295
 k-point 138 :   0.0000 0.4474 0.0000  plane waves:    2290
 k-point 139 :   0.0000 0.4737 0.0000  plane waves:    2288
 k-point 140 :   0.0000 0.5000 0.0000  plane waves:    2288

 maximum and minimum number of plane-waves per node :      2301     2255

 maximum number of plane-waves:      2301
 maximum index in each direction: 
   IXMAX=   14   IYMAX=   14   IZMAX=    6
   IXMIN=  -14   IYMIN=  -14   IZMIN=   -6


 serial   3D FFT for wavefunctions
 parallel 3D FFT for charge:
    minimum data exchange during FFTs selected (reduces bandwidth)


 total amount of memory used by VASP MPI-rank0   282240. kBytes
=======================================================================

   base      :      30000. kBytes
   nonl-proj :     139677. kBytes
   fftplans  :      30360. kBytes
   grid      :      17337. kBytes
   one-center:        139. kBytes
   wavefun   :      64727. kBytes
 
     INWAV:  cpu time      0.0000: real time      0.0000
 initial charge density was supplied:
 number of electron      80.0000001 magnetization 
 keeping initial charge density in first step


--------------------------------------------------------------------------------------------------------


 Maximum index for augmentation-charges         88908 (set IRDMAX)


--------------------------------------------------------------------------------------------------------


 First call to EWALD:  gamma=   0.354
 Maximum number of real-space cells 3x 3x 5
 Maximum number of reciprocal cells 4x 4x 2

    FEWALD:  cpu time      0.0013: real time      0.0013


--------------------------------------- Ionic step        1  -------------------------------------------




--------------------------------------- Iteration      1(   1)  ---------------------------------------


    POTLOK:  cpu time      0.0701: real time      0.0754
    SETDIJ:  cpu time      0.2385: real time      0.2385
     EDDAV:  cpu time      6.1996: real time      6.2001
       DOS:  cpu time      0.0017: real time      0.0017
    --------------------------------------------
      LOOP:  cpu time      6.5099: real time      6.5157

 eigenvalue-minimisations  : 14040
 total energy-change (2. order) : 0.9557699E+03  (-0.3686542E+04)
 number of electron      80.0000001 magnetization 
 augmentation part       80.0000001 magnetization 

 Free energy of the ion-electron system (eV)
  ---------------------------------------------------
  alpha Z        PSCENC =       343.16578823
  Ewald energy   TEWEN  =     -6351.82575815
  -Hartree energ DENC   =     -2078.07321992
  -exchange      EXHF   =         0.00000000
  -V(xc)+E(xc)   XCENC  =       325.90264705
  PAW double counting   =      9678.52900604    -9609.46764194
  entropy T*S    EENTRO =        -0.00287025
  eigenvalues    EBANDS =       269.99550538
  atomic energy  EATOM  =      8377.54643440
  Solvation  Ediel_sol  =         0.00000000
  ---------------------------------------------------
  free energy    TOTEN  =       955.76989083 eV

  energy without entropy =      955.77276108  energy(sigma->0) =      955.77132595


--------------------------------------------------------------------------------------------------------




--------------------------------------- Iteration      1(   2)  ---------------------------------------


     EDDAV:  cpu time      6.0257: real time      6.0263
       DOS:  cpu time      0.0016: real time      0.0016
    --------------------------------------------
      LOOP:  cpu time      6.0273: real time      6.0278

 eigenvalue-minimisations  : 14480
 total energy-change (2. order) :-0.8879833E+03  (-0.8588991E+03)
 number of electron      80.0000001 magnetization 
 augmentation part       80.0000001 magnetization 

 Free energy of the ion-electron system (eV)
  ---------------------------------------------------
  alpha Z        PSCENC =       343.16578823
  Ewald energy   TEWEN  =     -6351.82575815
  -Hartree energ DENC   =     -2078.07321992
  -exchange      EXHF   =         0.00000000
  -V(xc)+E(xc)   XCENC  =       325.90264705
  PAW double counting   =      9678.52900604    -9609.46764194
  entropy T*S    EENTRO =        -0.00230803
  eigenvalues    EBANDS =      -617.98839780
  atomic energy  EATOM  =      8377.54643440
  Solvation  Ediel_sol  =         0.00000000
  ---------------------------------------------------
  free energy    TOTEN  =        67.78654987 eV

  energy without entropy =       67.78885790  energy(sigma->0) =       67.78770389


--------------------------------------------------------------------------------------------------------




--------------------------------------- Iteration      1(   3)  ---------------------------------------


     EDDAV:  cpu time      6.8758: real time      6.8764
       DOS:  cpu time      0.0013: real time      0.0013
    --------------------------------------------
      LOOP:  cpu time      6.8771: real time      6.8777

 eigenvalue-minimisations  : 16592
 total energy-change (2. order) :-0.1264012E+03  (-0.1187676E+03)
 number of electron      80.0000001 magnetization 
 augmentation part       80.0000001 magnetization 

 Free energy of the ion-electron system (eV)
  ---------------------------------------------------
  alpha Z        PSCENC =       343.16578823
  Ewald energy   TEWEN  =     -6351.82575815
  -Hartree energ DENC   =     -2078.07321992
  -exchange      EXHF   =         0.00000000
  -V(xc)+E(xc)   XCENC  =       325.90264705
  PAW double counting   =      9678.52900604    -9609.46764194
  entropy T*S    EENTRO =        -0.00000000
  eigenvalues    EBANDS =      -744.39190453
  atomic energy  EATOM  =      8377.54643440
  Solvation  Ediel_sol  =         0.00000000
  ---------------------------------------------------
  free energy    TOTEN  =       -58.61464883 eV

  energy without entropy =      -58.61464883  energy(sigma->0) =      -58.61464883


--------------------------------------------------------------------------------------------------------




--------------------------------------- Iteration      1(   4)  ---------------------------------------


     EDDAV:  cpu time      6.4150: real time      6.4157
       DOS:  cpu time      0.0013: real time      0.0013
    --------------------------------------------
      LOOP:  cpu time      6.4162: real time      6.4169

 eigenvalue-minimisations  : 15440
 total energy-change (2. order) :-0.6611035E+01  (-0.6523162E+01)
 number of electron      80.0000001 magnetization 
 augmentation part       80.0000001 magnetization 

 Free energy of the ion-electron system (eV)
  ---------------------------------------------------
  alpha Z        PSCENC =       343.16578823
  Ewald energy   TEWEN  =     -6351.82575815
  -Hartree energ DENC   =     -2078.07321992
  -exchange      EXHF   =         0.00000000
  -V(xc)+E(xc)   XCENC  =       325.90264705
  PAW double counting   =      9678.52900604    -9609.46764194
  entropy T*S    EENTRO =        -0.00000000
  eigenvalues    EBANDS =      -751.00294002
  atomic energy  EATOM  =      8377.54643440
  Solvation  Ediel_sol  =         0.00000000
  ---------------------------------------------------
  free energy    TOTEN  =       -65.22568432 eV

  energy without entropy =      -65.22568432  energy(sigma->0) =      -65.22568432


--------------------------------------------------------------------------------------------------------




--------------------------------------- Iteration      1(   5)  ---------------------------------------


     EDDAV:  cpu time      7.4299: real time      7.4305
       DOS:  cpu time      0.0013: real time      0.0013
    --------------------------------------------
      LOOP:  cpu time      7.4312: real time      7.4318

 eigenvalue-minimisations  : 18448
 total energy-change (2. order) :-0.2973688E+00  (-0.2967094E+00)
 number of electron      80.0000001 magnetization 
 augmentation part       80.0000001 magnetization 

 Free energy of the ion-electron system (eV)
  ---------------------------------------------------
  alpha Z        PSCENC =       343.16578823
  Ewald energy   TEWEN  =     -6351.82575815
  -Hartree energ DENC   =     -2078.07321992
  -exchange      EXHF   =         0.00000000
  -V(xc)+E(xc)   XCENC  =       325.90264705
  PAW double counting   =      9678.52900604    -9609.46764194
  entropy T*S    EENTRO =        -0.00000000
  eigenvalues    EBANDS =      -751.30030882
  atomic energy  EATOM  =      8377.54643440
  Solvation  Ediel_sol  =         0.00000000
  ---------------------------------------------------
  free energy    TOTEN  =       -65.52305312 eV

  energy without entropy =      -65.52305312  energy(sigma->0) =      -65.52305312


--------------------------------------------------------------------------------------------------------




--------------------------------------- Iteration      1(   6)  ---------------------------------------


     EDDAV:  cpu time      7.1244: real time      7.1252
       DOS:  cpu time      0.0013: real time      0.0013
    --------------------------------------------
      LOOP:  cpu time      7.1257: real time      7.1264

 eigenvalue-minimisations  : 17552
 total energy-change (2. order) :-0.6152488E-02  (-0.6145557E-02)
 number of electron      80.0000001 magnetization 
 augmentation part       80.0000001 magnetization 

 Free energy of the ion-electron system (eV)
  ---------------------------------------------------
  alpha Z        PSCENC =       343.16578823
  Ewald energy   TEWEN  =     -6351.82575815
  -Hartree energ DENC   =     -2078.07321992
  -exchange      EXHF   =         0.00000000
  -V(xc)+E(xc)   XCENC  =       325.90264705
  PAW double counting   =      9678.52900604    -9609.46764194
  entropy T*S    EENTRO =        -0.00000000
  eigenvalues    EBANDS =      -751.30646130
  atomic energy  EATOM  =      8377.54643440
  Solvation  Ediel_sol  =         0.00000000
  ---------------------------------------------------
  free energy    TOTEN  =       -65.52920560 eV

  energy without entropy =      -65.52920560  energy(sigma->0) =      -65.52920560


--------------------------------------------------------------------------------------------------------




--------------------------------------- Iteration      1(   7)  ---------------------------------------


     EDDAV:  cpu time      7.5315: real time      7.5321
       DOS:  cpu time      0.0012: real time      0.0012
    --------------------------------------------
      LOOP:  cpu time      7.5327: real time      7.5334

 eigenvalue-minimisations  : 18672
 total energy-change (2. order) :-0.1712062E-03  (-0.1711750E-03)
 number of electron      80.0000001 magnetization 
 augmentation part       80.0000001 magnetization 

 Free energy of the ion-electron system (eV)
  ---------------------------------------------------
  alpha Z        PSCENC =       343.16578823
  Ewald energy   TEWEN  =     -6351.82575815
  -Hartree energ DENC   =     -2078.07321992
  -exchange      EXHF   =         0.00000000
  -V(xc)+E(xc)   XCENC  =       325.90264705
  PAW double counting   =      9678.52900604    -9609.46764194
  entropy T*S    EENTRO =        -0.00000000
  eigenvalues    EBANDS =      -751.30663251
  atomic energy  EATOM  =      8377.54643440
  Solvation  Ediel_sol  =         0.00000000
  ---------------------------------------------------
  free energy    TOTEN  =       -65.52937681 eV

  energy without entropy =      -65.52937681  energy(sigma->0) =      -65.52937681


--------------------------------------------------------------------------------------------------------




--------------------------------------- Iteration      1(   8)  ---------------------------------------


     EDDAV:  cpu time      7.3550: real time      7.3555
       DOS:  cpu time      0.0012: real time      0.0012
    --------------------------------------------
      LOOP:  cpu time      7.3563: real time      7.3568

 eigenvalue-minimisations  : 18216
 total energy-change (2. order) :-0.3143409E-05  (-0.3143041E-05)
 number of electron      80.0000001 magnetization 
 augmentation part       80.0000001 magnetization 

[...]
     45       9.7959      0.00000
     46      10.0876      0.00000
     47      10.3553      0.00000
     48      10.9705      0.00000

 k-point   135 :       0.0000    0.3684    0.0000
  band No.  band energies     occupation 
      1     -69.5904      2.00000
      2     -33.9495      2.00000
      3     -33.8804      2.00000
      4     -33.7105      2.00000
      5     -16.9108      2.00000
      6     -16.8282      2.00000
      7     -16.7387      2.00000
      8     -16.7224      2.00000
      9     -16.7219      2.00000
     10     -16.7066      2.00000
     11     -16.6797      2.00000
     12     -16.6651      2.00000
     13     -16.6312      2.00000
     14     -16.6311      2.00000
     15     -13.2293      2.00000
     16     -12.6115      2.00000
     17     -11.9994      2.00000
     18     -11.7625      2.00000
     19     -11.4506      2.00000
     20     -10.9831      2.00000
     21      -4.2947      2.00000
     22      -3.3393      2.00000
     23      -1.0764      2.00000
     24       0.2067      2.00000
     25       0.7958      2.00000
     26       0.8911      2.00000
     27       1.4456      2.00000
     28       1.5552      2.00000
     29       2.1309      2.00000
     30       2.2861      2.00000
     31       2.4176      2.00000
     32       2.5230      2.00000
     33       2.6888      2.00000
     34       2.8961      2.00000
     35       3.2490      2.00000
     36       3.4880      2.00000
     37       3.8442      2.00000
     38       4.3345      2.00000
     39       4.6262      2.00000
     40       4.8478      2.00000
     41       7.9694      0.00000
     42       8.6621      0.00000
     43       9.2288      0.00000
     44       9.4129      0.00000
     45       9.8689      0.00000
     46      10.1381      0.00000
     47      10.3927      0.00000
     48      11.0099      0.00000

 k-point   136 :       0.0000    0.3947    0.0000
  band No.  band energies     occupation 
      1     -69.5904      2.00000
      2     -33.9517      2.00000
      3     -33.8807      2.00000
      4     -33.7103      2.00000
      5     -16.9057      2.00000
      6     -16.8393      2.00000
      7     -16.7368      2.00000
      8     -16.7235      2.00000
      9     -16.7207      2.00000
     10     -16.7084      2.00000
     11     -16.6759      2.00000
     12     -16.6639      2.00000
     13     -16.6313      2.00000
     14     -16.6313      2.00000
     15     -13.2188      2.00000
     16     -12.5203      2.00000
     17     -11.9509      2.00000
     18     -11.7921      2.00000
     19     -11.4931      2.00000
     20     -10.9824      2.00000
     21      -4.2388      2.00000
     22      -3.4629      2.00000
     23      -1.2438      2.00000
     24       0.1661      2.00000
     25       0.7743      2.00000
     26       0.8549      2.00000
     27       1.5108      2.00000
     28       1.5965      2.00000
     29       2.1098      2.00000
     30       2.2689      2.00000
     31       2.4166      2.00000
     32       2.5083      2.00000
     33       2.6651      2.00000
     34       2.8253      2.00000
     35       3.2105      2.00000
     36       3.4756      2.00000
     37       3.8517      2.00000
     38       4.3637      2.00000
     39       4.6595      2.00000
     40       4.8802      2.00000
     41       7.9672      0.00000
     42       8.7773      0.00000
     43       9.2575      0.00000
     44       9.4244      0.00000
     45       9.8599      0.00000
     46      10.2274      0.00000
     47      10.4602      0.00000
     48      11.0524      0.00000

 k-point   137 :       0.0000    0.4211    0.0000
  band No.  band energies     occupation 
      1     -69.5904      2.00000
      2     -33.9535      2.00000
      3     -33.8809      2.00000
      4     -33.7102      2.00000
      5     -16.8999      2.00000
      6     -16.8500      2.00000
      7     -16.7349      2.00000
      8     -16.7249      2.00000
      9     -16.7195      2.00000
     10     -16.7103      2.00000
     11     -16.6725      2.00000
     12     -16.6633      2.00000
     13     -16.6315      2.00000
     14     -16.6314      2.00000
     15     -13.2110      2.00000
     16     -12.4280      2.00000
     17     -11.9329      2.00000
     18     -11.8153      2.00000
     19     -11.5259      2.00000
     20     -10.9810      2.00000
     21      -4.1730      2.00000
     22      -3.5831      2.00000
     23      -1.3786      2.00000
     24       0.1335      2.00000
     25       0.7576      2.00000
     26       0.8257      2.00000
     27       1.5505      2.00000
     28       1.6546      2.00000
     29       2.1004      2.00000
     30       2.2457      2.00000
     31       2.4136      2.00000
     32       2.4921      2.00000
     33       2.6468      2.00000
     34       2.7626      2.00000
     35       3.1775      2.00000
     36       3.4674      2.00000
     37       3.8586      2.00000
     38       4.3822      2.00000
     39       4.6840      2.00000
     40       4.9104      2.00000
     41       7.9652      0.00000
     42       8.8711      0.00000
     43       9.2604      0.00000
     44       9.4496      0.00000
     45       9.8265      0.00000
     46      10.3244      0.00000
     47      10.5259      0.00000
     48      11.0971      0.00000

 k-point   138 :       0.0000    0.4474    0.0000
  band No.  band energies     occupation 
      1     -69.5904      2.00000
      2     -33.9548      2.00000
      3     -33.8811      2.00000
      4     -33.7102      2.00000
      5     -16.8934      2.00000
      6     -16.8601      2.00000
      7     -16.7331      2.00000
      8     -16.7263      2.00000
      9     -16.7181      2.00000
     10     -16.7120      2.00000
     11     -16.6695      2.00000
     12     -16.6633      2.00000
     13     -16.6317      2.00000
     14     -16.6316      2.00000
     15     -13.2053      2.00000
     16     -12.3366      2.00000
     17     -11.9655      2.00000
     18     -11.8110      2.00000
     19     -11.5478      2.00000
     20     -10.9795      2.00000
     21      -4.0979      2.00000
     22      -3.6977      2.00000
     23      -1.4772      2.00000
     24       0.1099      2.00000
     25       0.7458      2.00000
     26       0.8050      2.00000
     27       1.5697      2.00000
     28       1.7185      2.00000
     29       2.1002      2.00000
     30       2.2181      2.00000
     31       2.4106      2.00000
     32       2.4775      2.00000
     33       2.6358      2.00000
     34       2.7131      2.00000
     35       3.1530      2.00000
     36       3.4631      2.00000
     37       3.8638      2.00000
     38       4.3941      2.00000
     39       4.7021      2.00000
     40       4.9360      2.00000
     41       7.9641      0.00000
     42       8.9410      0.00000
     43       9.2561      0.00000
     44       9.4698      0.00000
     45       9.8003      0.00000
     46      10.4039      0.00000
     47      10.5780      0.00000
     48      11.1414      0.00000

 k-point   139 :       0.0000    0.4737    0.0000
  band No.  band energies     occupation 
      1     -69.5904      2.00000
      2     -33.9556      2.00000
      3     -33.8812      2.00000
      4     -33.7101      2.00000
      5     -16.8862      2.00000
      6     -16.8695      2.00000
      7     -16.7313      2.00000
      8     -16.7279      2.00000
      9     -16.7167      2.00000
     10     -16.7137      2.00000
     11     -16.6671      2.00000
     12     -16.6639      2.00000
     13     -16.6317      2.00000
     14     -16.6316      2.00000
     15     -13.2019      2.00000
     16     -12.2534      2.00000
     17     -12.0245      2.00000
     18     -11.7975      2.00000
     19     -11.5604      2.00000
     20     -10.9784      2.00000
     21      -4.0157      2.00000
     22      -3.8040      2.00000
     23      -1.5373      2.00000
     24       0.0955      2.00000
     25       0.7387      2.00000
     26       0.7924      2.00000
     27       1.5783      2.00000
     28       1.7690      2.00000
     29       2.1032      2.00000
     30       2.1925      2.00000
     31       2.4085      2.00000
     32       2.4666      2.00000
     33       2.6312      2.00000
     34       2.6799      2.00000
     35       3.1376      2.00000
     36       3.4610      2.00000
     37       3.8671      2.00000
     38       4.4001      2.00000
     39       4.7131      2.00000
     40       4.9530      2.00000
     41       7.9634      0.00000
     42       8.9840      0.00000
     43       9.2521      0.00000
     44       9.4793      0.00000
     45       9.7871      0.00000
     46      10.4548      0.00000
     47      10.6108      0.00000
     48      11.1738      0.00000

 k-point   140 :       0.0000    0.5000    0.0000
  band No.  band energies     occupation 
      1     -69.5904      2.00000
      2     -33.9559      2.00000
      3     -33.8812      2.00000
      4     -33.7101      2.00000
      5     -16.8789      2.00000
      6     -16.8775      2.00000
      7     -16.7297      2.00000
      8     -16.7294      2.00000
      9     -16.7153      2.00000
     10     -16.7152      2.00000
     11     -16.6652      2.00000
     12     -16.6651      2.00000
     13     -16.6317      2.00000
     14     -16.6317      2.00000
     15     -13.2008      2.00000
     16     -12.2086      2.00000
     17     -12.0626      2.00000
     18     -11.7917      2.00000
     19     -11.5645      2.00000
     20     -10.9779      2.00000
     21      -3.9524      2.00000
     22      -3.8753      2.00000
     23      -1.5576      2.00000
     24       0.0906      2.00000
     25       0.7365      2.00000
     26       0.7881      2.00000
     27       1.5808      2.00000
     28       1.7887      2.00000
     29       2.1045      2.00000
     30       2.1818      2.00000
     31       2.4078      2.00000
     32       2.4623      2.00000
     33       2.6308      2.00000
     34       2.6675      2.00000
     35       3.1325      2.00000
     36       3.4602      2.00000
     37       3.8682      2.00000
     38       4.4021      2.00000
     39       4.7167      2.00000
     40       4.9587      2.00000
     41       7.9631      0.00000
     42       8.9984      0.00000
     43       9.2508      0.00000
     44       9.4816      0.00000
     45       9.7836      0.00000
     46      10.4719      0.00000
     47      10.6219      0.00000
     48      11.1872      0.00000


--------------------------------------------------------------------------------------------------------


 soft charge-density along one line, spin component            1
         0         1         2         3         4         5         6         7         8         9
 total charge-density along one line
 
 pseudopotential strength for first ion, spin component:            1
 12.083 -14.695   0.000  -0.020  -0.026  -0.000   0.025   0.032
-14.695  17.889  -0.000   0.026   0.033   0.000  -0.032  -0.041
  0.000  -0.000  -8.180  -0.000   0.000   9.769   0.000  -0.000
 -0.020   0.026  -0.000  -8.231  -0.043   0.000   9.836   0.057
 -0.026   0.033   0.000  -0.043  -8.238  -0.000   0.057   9.845
 -0.000   0.000   9.769   0.000  -0.000 -11.498  -0.000   0.000
  0.025  -0.032   0.000   9.836   0.057  -0.000 -11.587  -0.076
  0.032  -0.041  -0.000   0.057   9.845   0.000  -0.076 -11.598
 total augmentation occupancy for first ion, spin component:            1
  2.000   0.000   0.000   0.000   0.000   0.000   0.000   0.000
  0.000   0.000   0.000   0.000   0.000   0.000   0.000   0.000
  0.000   0.000   1.333   0.000   0.000   0.000   0.000   0.000
  0.000   0.000   0.000   1.333   0.000   0.000   0.000   0.000
  0.000   0.000   0.000   0.000   1.333   0.000   0.000   0.000
  0.000   0.000   0.000   0.000   0.000   0.000   0.000   0.000
  0.000   0.000   0.000   0.000   0.000   0.000   0.000   0.000
  0.000   0.000   0.000   0.000   0.000   0.000   0.000   0.000


------------------------ aborting loop because EDIFF is reached ----------------------------------------





 total charge

# of ion       s       p       d       tot
------------------------------------------
    1        1.599   3.518   0.000   5.117
    2        1.592   3.551   0.000   5.142
    3        1.603   3.428   0.000   5.031
    4        1.603   3.428   0.000   5.031
    5        1.601   3.460   0.000   5.061
    6        1.601   3.460   0.000   5.061
    7        2.400   6.548   3.085  12.033
    8        1.631   0.852  10.019  12.501
    9        1.631   0.852  10.019  12.501
--------------------------------------------------
tot         15.260  29.096  23.122  67.478
 
    CHARGE:  cpu time      0.2249: real time      0.2438
    FORLOC:  cpu time      0.0020: real time      0.0020
    FORNL :  cpu time      1.0389: real time      1.0389
    STRESS:  cpu time      4.9431: real time      4.9436
    FORCOR:  cpu time      0.0059: real time      0.0059
    FORHAR:  cpu time      0.0018: real time      0.0018
    OFIELD:  cpu time      0.0006: real time      0.0006

  FORCE on cell =-STRESS in cart. coord.  units (eV):
  Direction    XX          YY          ZZ          XY          YZ          ZX
  --------------------------------------------------------------------------------------
  Alpha Z   343.16579   343.16579   343.16579
  Ewald   -2075.75447 -2246.56034 -2029.52012     0.00000    -0.00000  -132.34224
  Hartree   720.36426   610.19427   748.57957     0.00000     0.00000   -85.02945
  E(xc)    -392.86257  -393.05314  -392.74346     0.00000    -0.00000    -0.12058
  Local    -266.38786     7.59427  -340.23016    -0.00000    -0.00000   214.36912
  n-local    57.95777    58.96394    57.91640     0.02161    -0.00976    -0.02157
  augment   370.36313   370.08222   371.20048    -0.00000    -0.00000    -0.26521
  Kinetic  1242.19379  1249.04795  1240.53130    -0.08044     0.08914     3.19916
  Fock        0.00000     0.00000     0.00000     0.00000     0.00000     0.00000
  -------------------------------------------------------------------------------------
  Total      -0.96016    -0.56505    -1.10020     0.00000     0.00000    -0.21077
  in kB     -12.25297    -7.21079   -14.04006     0.00000     0.00000    -2.68974
  external pressure =      -11.17 kB  Pullay stress =        0.00 kB


 VOLUME and BASIS-vectors are now :
 -----------------------------------------------------------------------------
  energy-cutoff  :      400.00
  volume of cell :      125.55
      direct lattice vectors                 reciprocal lattice vectors
     2.748770812 -8.279607539 -0.035490096     0.184129285 -0.060389336  0.172701805
     2.748770812  8.279607539 -0.035490096     0.184129285  0.060389336  0.172701805
    -2.618792806 -0.000000000  2.792075309     0.004680938  0.000000000  0.362546957

  length of vectors
     8.724041582  8.724041582  3.828023026     0.259569603  0.259569603  0.362577174


 FORCES acting on ions
    electron-ion (+dipol)            ewald-force                    non-local-force                 convergence-correction
 -----------------------------------------------------------------------------------------------
   0.678E+02 0.242E-12 0.525E+02   -.801E+02 0.000E+00 -.610E+02   0.122E+02 0.000E+00 0.925E+01   0.162E+00 0.365E-10 -.361E+00
   -.464E+02 0.192E-11 0.247E+02   0.571E+02 0.000E+00 -.252E+02   -.900E+01 0.000E+00 0.247E+01   -.107E+01 0.384E-10 -.114E+01
   0.247E+02 0.142E+03 0.258E+02   -.261E+02 -.161E+03 -.275E+02   0.132E+01 0.177E+02 0.129E+01   0.124E+00 0.104E+01 0.308E+00
   0.247E+02 -.142E+03 0.258E+02   -.261E+02 0.161E+03 -.275E+02   0.132E+01 -.177E+02 0.129E+01   0.124E+00 -.104E+01 0.308E+00
   0.105E+02 -.773E+01 0.196E+02   -.135E+02 0.774E+01 -.251E+02   0.295E+01 0.186E+00 0.550E+01   0.434E-01 -.135E+00 0.308E-01
   0.105E+02 0.773E+01 0.196E+02   -.135E+02 -.774E+01 -.251E+02   0.295E+01 -.186E+00 0.550E+01   0.434E-01 0.135E+00 0.308E-01
   0.185E+02 -.700E-11 0.449E+01   -.196E+02 -.171E-12 -.657E+01   -.130E+00 0.000E+00 -.132E+00   0.545E+00 0.642E-10 0.103E+01
   -.577E+02 -.220E+03 -.926E+02   0.609E+02 0.231E+03 0.990E+02   -.307E+01 -.130E+02 -.625E+01   -.132E+00 0.254E+01 -.173E+00
   -.577E+02 0.220E+03 -.926E+02   0.609E+02 -.231E+03 0.990E+02   -.307E+01 0.130E+02 -.625E+01   -.132E+00 -.254E+01 -.173E+00
 -----------------------------------------------------------------------------------------------
   -.515E+01 -.126E-10 -.125E+02   0.142E-13 0.568E-13 0.000E+00   0.549E+01 -.178E-14 0.127E+02   -.297E+00 -.612E-11 -.142E+00
 
 
 POSITION                                       TOTAL-FORCE (eV/Angst)
 -----------------------------------------------------------------------------------
     -0.88903     -0.00000      2.75213         0.092113      0.000000      0.363393
      4.48442      0.00000     -0.04073         0.616817      0.000000      0.839577
      3.16699     -1.86471      1.47356        -0.043590     -0.227757     -0.073493
      3.16699      1.86471      1.47356        -0.043590      0.227757     -0.073493
      1.59183     -4.10143      2.51099         0.025702      0.062586      0.064800
      1.59183      4.10143      2.51099         0.025702     -0.062586      0.064800
      3.08225     -0.00000      1.14210        -0.738949      0.000000     -1.181749
      0.06449     -2.86572      0.97424         0.032898      0.013038     -0.001917
      0.06449      2.86572      0.97424         0.032898     -0.013038     -0.001917
 -----------------------------------------------------------------------------------
    total drift:                                0.042964     -0.000000      0.064786


--------------------------------------------------------------------------------------------------------



  FREE ENERGIE OF THE ION-ELECTRON SYSTEM (eV)
  ---------------------------------------------------
  free  energy   TOTEN  =       -65.52938004 eV

  energy  without entropy=      -65.52938004  energy(sigma->0) =      -65.52938004
 


--------------------------------------------------------------------------------------------------------


    POTLOK:  cpu time      0.1690: real time      0.1690


--------------------------------------------------------------------------------------------------------


 writing wavefunctions
     LOOP+:  cpu time     74.9764: real time     75.0190
    4ORBIT:  cpu time      0.0000: real time      0.0000



 total charge

# of ion       s       p       d       tot
------------------------------------------
    1        1.599   3.518   0.000   5.117
    2        1.592   3.551   0.000   5.142
    3        1.603   3.428   0.000   5.031
    4        1.603   3.428   0.000   5.031
    5        1.601   3.460   0.000   5.061
    6        1.601   3.460   0.000   5.061
    7        2.400   6.548   3.085  12.033
    8        1.631   0.852  10.019  12.501
    9        1.631   0.852  10.019  12.501
--------------------------------------------------
tot         15.260  29.096  23.122  67.478
 

 total amount of memory used by VASP MPI-rank0   282240. kBytes
=======================================================================

   base      :      30000. kBytes
   nonl-proj :     139677. kBytes
   fftplans  :      30360. kBytes
   grid      :      17337. kBytes
   one-center:        139. kBytes
   wavefun   :      64727. kBytes
 
  
  
 General timing and accounting informations for this job:
 ========================================================
  
                  Total CPU time used (sec):       80.191
                            User time (sec):       59.859
                          System time (sec):       20.331
                         Elapsed time (sec):       80.697
  
                   Maximum memory used (kb):     1879800.
                   Average memory used (kb):          N/A
  
                          Minor page faults:       339092
                          Major page faults:            6
                 Voluntary context switches:         4437
