 running    4 mpi-ranks, with    1 threads/rank, on    1 nodes
 distrk:  each k-point on    4 cores,    1 groups
 distr:  one band on    1 cores,    4 groups
 OpenACC runtime initialized ...    4 GPUs detected
 vasp.6.4.2 20Jul23 (build Jun 26 2024 13:15:30) complex                         
 POSCAR found type information on POSCAR O W Bi
 POSCAR found :  3 types and       9 ions
 scaLAPACK will be used selectively (only on CPU)
 LDA part: xc-table for Pade appr. of Perdew
 WARNING: stress and forces are not correct
 POSCAR, INCAR and KPOINTS ok, starting setup
 FFT: planning ... GRIDC
 FFT: planning ... GRID_SOFT
 FFT: planning ... GRID
 WAVECAR not read
 charge-density read from file: unknown                                 
 WARNING: random wavefunctions but no delay for mixing, default for NELMDL
 entering main loop
       N       E                     dE             d eps       ncg     rms          rms(c)
DAV:   1     0.955769890831E+03    0.95577E+03   -0.36865E+04 14040   0.171E+03
DAV:   2     0.677865498719E+02   -0.88798E+03   -0.85890E+03 14480   0.525E+02
DAV:   3    -0.586146488314E+02   -0.12640E+03   -0.11877E+03 16592   0.198E+02
DAV:   4    -0.652256843175E+02   -0.66110E+01   -0.65232E+01 15440   0.471E+01
DAV:   5    -0.655230531154E+02   -0.29737E+00   -0.29671E+00 18448   0.991E+00
DAV:   6    -0.655292056038E+02   -0.61525E-02   -0.61456E-02 17552   0.135E+00
DAV:   7    -0.655293768100E+02   -0.17121E-03   -0.17117E-03 18672   0.205E-01
DAV:   8    -0.655293799534E+02   -0.31434E-05   -0.31430E-05 18216   0.272E-02
DAV:   9    -0.655293800343E+02   -0.80940E-07   -0.80737E-07 19104   0.376E-03
DAV:  10    -0.655293800362E+02   -0.18699E-08   -0.20783E-08 10696   0.598E-04
   1 F= -.65529380E+02 E0= -.65529380E+02  d E =-.437750E-13
 writing wavefunctions
