unknown system                          
            1
     2.748771   -8.279608   -0.035490
     2.748771    8.279608   -0.035490
    -2.618793   -0.000000    2.792075
   O    W    Bi
     6     1     2
Direct configuration=     1
   0.31160100  0.31160100  0.99361447
   0.81867928  0.81867928  0.00622646
   0.95022993  0.72501300  0.54905777
   0.72501300  0.95022993  0.54905777
   0.97443765  0.47907179  0.91780132
   0.47907179  0.97443765  0.91780132
   0.76477459  0.76477459  0.42849184
   0.35318703  0.00706909  0.35351141
   0.00706909  0.35318703  0.35351141
